version 2
run seapp-attacks-0-20150516-10:59:37-5000
attr ber 0
attr configname seapp-attacks
attr datetime 20150516-10:59:37
attr experiment seapp-attacks
attr inifile omnetpp.ini
attr iterationvars $ber=0
attr iterationvars2 "$ber=0, $repetition=0"
attr measurement $ber=0
attr network ber
attr processid 5000
attr repetition 0
attr replication #0
attr resultdir results
attr runnumber 0
attr seedset 0

vector 11  ber.client.ppp[0].queue  queueLength:vector  ETV
attr interpolationmode  sample-hold
attr title  "queue length, vector"
vector 12  ber.client.ppp[0].ppp  txState:vector  ETV
attr interpolationmode  sample-hold
attr title  "tx state, vector"
vector 29  ber.server.ppp[0].queue  queueLength:vector  ETV
attr interpolationmode  sample-hold
attr title  "queue length, vector"
vector 30  ber.server.ppp[0].ppp  txState:vector  ETV
attr interpolationmode  sample-hold
attr title  "tx state, vector"
11	0	0	0
12	0	0	0
29	0	0	0
30	0	0	0
