version 2
run Disable-0-20161003-09:12:46-3113
attr configname Disable
attr datetime 20161003-09:12:46
attr experiment Disable
attr inifile omnetpp.ini
attr iterationvars ""
attr iterationvars2 $repetition=0
attr measurement ""
attr network Scenario
attr processid 3113
attr repetition 0
attr replication #0
attr resultdir results
attr runnumber 0
attr seedset 0

vector 1  Scenario.client1.udpApp[0]  sentPk:vector(packetBytes)  ETV
attr interpolationmode  none
attr source  sentPk
attr title  "packets sent, vector(packetBytes)"
vector 26  Scenario.client2.udpApp[0]  sentPk:vector(packetBytes)  ETV
attr interpolationmode  none
attr source  sentPk
attr title  "packets sent, vector(packetBytes)"
vector 3  Scenario.client1.udp  sentPk:vector(packetBytes)  ETV
attr interpolationmode  none
attr source  sentPk
attr title  "packets sent, vector(packetBytes)"
vector 28  Scenario.client2.udp  sentPk:vector(packetBytes)  ETV
attr interpolationmode  none
attr source  sentPk
attr title  "packets sent, vector(packetBytes)"
vector 8  Scenario.client1.networkLayer.arp  sentReq:vector  ETV
attr title  "ARP request sent, vector"
vector 33  Scenario.client2.networkLayer.arp  sentReq:vector  ETV
attr title  "ARP request sent, vector"
vector 22  Scenario.client1.eth[0].encap  encapPk:vector(packetBytes)  ETV
attr interpolationmode  none
attr source  encapPk
attr title  "packets encapsulated, vector(packetBytes)"
vector 47  Scenario.client2.eth[0].encap  encapPk:vector(packetBytes)  ETV
attr interpolationmode  none
attr source  encapPk
attr title  "packets encapsulated, vector(packetBytes)"
vector 18  Scenario.client1.eth[0].mac  rxPkFromHL:vector(packetBytes)  ETV
attr interpolationmode  none
attr source  rxPkFromHL
attr title  "packet bytes from higher layer, vector(packetBytes)"
vector 43  Scenario.client2.eth[0].mac  rxPkFromHL:vector(packetBytes)  ETV
attr interpolationmode  none
attr source  rxPkFromHL
attr title  "packet bytes from higher layer, vector(packetBytes)"
vector 13  Scenario.client1.eth[0].mac  txPk:vector(packetBytes)  ETV
attr interpolationmode  none
attr source  txPk
attr title  "packets transmitted, vector(packetBytes)"
vector 38  Scenario.client2.eth[0].mac  txPk:vector(packetBytes)  ETV
attr interpolationmode  none
attr source  txPk
attr title  "packets transmitted, vector(packetBytes)"
vector 75  Scenario.switch.eth[0].mac  rxPkOk:vector(packetBytes)  ETV
attr interpolationmode  none
attr source  rxPkOk
attr title  "packets received OK, vector(packetBytes)"
vector 76  Scenario.switch.eth[0].mac  passedUpPk:vector(packetBytes)  ETV
attr interpolationmode  none
attr source  packetSentToUpper
attr title  "packets passed to higher layer, vector(packetBytes)"
vector 86  Scenario.switch.eth[1].mac  rxPkOk:vector(packetBytes)  ETV
attr interpolationmode  none
attr source  rxPkOk
attr title  "packets received OK, vector(packetBytes)"
vector 87  Scenario.switch.eth[1].mac  passedUpPk:vector(packetBytes)  ETV
attr interpolationmode  none
attr source  packetSentToUpper
attr title  "packets passed to higher layer, vector(packetBytes)"
vector 90  Scenario.switch.eth[1].mac  rxPkFromHL:vector(packetBytes)  ETV
attr interpolationmode  none
attr source  rxPkFromHL
attr title  "packet bytes from higher layer, vector(packetBytes)"
vector 101  Scenario.switch.eth[2].mac  rxPkFromHL:vector(packetBytes)  ETV
attr interpolationmode  none
attr source  rxPkFromHL
attr title  "packet bytes from higher layer, vector(packetBytes)"
vector 79  Scenario.switch.eth[0].mac  rxPkFromHL:vector(packetBytes)  ETV
attr interpolationmode  none
attr source  rxPkFromHL
attr title  "packet bytes from higher layer, vector(packetBytes)"
vector 96  Scenario.switch.eth[2].mac  txPk:vector(packetBytes)  ETV
attr interpolationmode  none
attr source  txPk
attr title  "packets transmitted, vector(packetBytes)"
vector 74  Scenario.switch.eth[0].mac  txPk:vector(packetBytes)  ETV
attr interpolationmode  none
attr source  txPk
attr title  "packets transmitted, vector(packetBytes)"
vector 85  Scenario.switch.eth[1].mac  txPk:vector(packetBytes)  ETV
attr interpolationmode  none
attr source  txPk
attr title  "packets transmitted, vector(packetBytes)"
vector 63  Scenario.server.eth[0].mac  rxPkOk:vector(packetBytes)  ETV
attr interpolationmode  none
attr source  rxPkOk
attr title  "packets received OK, vector(packetBytes)"
vector 64  Scenario.server.eth[0].mac  passedUpPk:vector(packetBytes)  ETV
attr interpolationmode  none
attr source  packetSentToUpper
attr title  "packets passed to higher layer, vector(packetBytes)"
vector 72  Scenario.server.eth[0].encap  decapPk:vector(packetBytes)  ETV
attr interpolationmode  none
attr source  decapPk
attr title  "packets decapsulated, vector(packetBytes)"
vector 58  Scenario.server.networkLayer.arp  sentReply:vector  ETV
attr title  "ARP replies sent, vector"
vector 71  Scenario.server.eth[0].encap  encapPk:vector(packetBytes)  ETV
attr interpolationmode  none
attr source  encapPk
attr title  "packets encapsulated, vector(packetBytes)"
vector 67  Scenario.server.eth[0].mac  rxPkFromHL:vector(packetBytes)  ETV
attr interpolationmode  none
attr source  rxPkFromHL
attr title  "packet bytes from higher layer, vector(packetBytes)"
vector 14  Scenario.client1.eth[0].mac  rxPkOk:vector(packetBytes)  ETV
attr interpolationmode  none
attr source  rxPkOk
attr title  "packets received OK, vector(packetBytes)"
vector 15  Scenario.client1.eth[0].mac  passedUpPk:vector(packetBytes)  ETV
attr interpolationmode  none
attr source  packetSentToUpper
attr title  "packets passed to higher layer, vector(packetBytes)"
vector 39  Scenario.client2.eth[0].mac  rxPkOk:vector(packetBytes)  ETV
attr interpolationmode  none
attr source  rxPkOk
attr title  "packets received OK, vector(packetBytes)"
vector 40  Scenario.client2.eth[0].mac  passedUpPk:vector(packetBytes)  ETV
attr interpolationmode  none
attr source  packetSentToUpper
attr title  "packets passed to higher layer, vector(packetBytes)"
vector 23  Scenario.client1.eth[0].encap  decapPk:vector(packetBytes)  ETV
attr interpolationmode  none
attr source  decapPk
attr title  "packets decapsulated, vector(packetBytes)"
vector 48  Scenario.client2.eth[0].encap  decapPk:vector(packetBytes)  ETV
attr interpolationmode  none
attr source  decapPk
attr title  "packets decapsulated, vector(packetBytes)"
vector 62  Scenario.server.eth[0].mac  txPk:vector(packetBytes)  ETV
attr interpolationmode  none
attr source  txPk
attr title  "packets transmitted, vector(packetBytes)"
vector 97  Scenario.switch.eth[2].mac  rxPkOk:vector(packetBytes)  ETV
attr interpolationmode  none
attr source  rxPkOk
attr title  "packets received OK, vector(packetBytes)"
vector 98  Scenario.switch.eth[2].mac  passedUpPk:vector(packetBytes)  ETV
attr interpolationmode  none
attr source  packetSentToUpper
attr title  "packets passed to higher layer, vector(packetBytes)"
vector 53  Scenario.server.udp  rcvdPk:vector(packetBytes)  ETV
attr interpolationmode  none
attr source  rcvdPk
attr title  "packets received, vector(packetBytes)"
vector 54  Scenario.server.udp  passedUpPk:vector(count)  ETV
attr interpolationmode  none
attr title  "packets passed up, vector(count)"
vector 50  Scenario.server.udpApp[0]  rcvdPk:vector(packetBytes)  ETV
attr interpolationmode  none
attr source  rcvdPk
attr title  "packets received, vector(packetBytes)"
vector 51  Scenario.server.udpApp[0]  endToEndDelay:vector  ETV
attr interpolationmode  none
attr source  messageAge(rcvdPk)
attr title  "end-to-end delay, vector"
attr unit  s
33	30	0.2	1
43	38	0.2	64
43	125	0.200033759999	1296
43	174	0.4	1296
43	224	0.6	1296
43	274	0.8	1296
43	324	1	1296
43	374	1.2	1296
43	424	1.4	1296
43	474	1.6	1296
43	524	1.8	1296
43	574	2	1296
43	624	2.2	1296
43	674	2.4	1296
43	724	2.6	1296
43	774	2.8	1296
43	824	3	1296
43	874	3.2	1296
43	924	3.4	1296
43	974	3.6	1296
43	1024	3.8	1296
43	1074	4	1296
43	1124	4.2	1296
43	1174	4.4	1296
43	1224	4.6	1296
43	1274	4.8	1296
43	1324	5	1296
43	1374	5.2	1296
43	1424	5.4	1296
43	1474	5.6	1296
43	1524	5.8	1296
43	1574	6	1296
43	1624	6.2	1296
43	1674	6.4	1296
43	1724	6.6	1296
43	1774	6.8	1296
43	1824	7	1296
43	1874	7.2	1296
43	1924	7.4	1296
43	1974	7.6	1296
43	2024	7.8	1296
43	2074	8	1296
43	2124	8.2	1296
43	2174	8.4	1296
43	2224	8.6	1296
43	2274	8.8	1296
43	2324	9	1296
43	2374	9.2	1296
43	2424	9.4	1296
43	2474	9.6	1296
43	2524	9.8	1296
43	2574	10	1296
43	2624	10.2	1296
43	2674	10.4	1296
43	2724	10.6	1296
43	2774	10.8	1296
43	2824	11	1296
43	2874	11.2	1296
43	2924	11.4	1296
43	2974	11.6	1296
43	3024	11.8	1296
43	3074	12	1296
43	3124	12.2	1296
43	3174	12.4	1296
43	3224	12.6	1296
43	3274	12.8	1296
43	3324	13	1296
43	3374	13.2	1296
43	3424	13.4	1296
43	3474	13.6	1296
43	3524	13.8	1296
43	3574	14	1296
43	3624	14.2	1296
43	3674	14.4	1296
43	3724	14.6	1296
43	3774	14.8	1296
43	3824	15	1296
43	3874	15.2	1296
43	3924	15.4	1296
43	3974	15.6	1296
43	4024	15.8	1296
43	4074	16	1296
43	4124	16.2	1296
43	4174	16.4	1296
43	4224	16.6	1296
43	4274	16.8	1296
43	4324	17	1296
43	4374	17.2	1296
43	4424	17.4	1296
43	4474	17.6	1296
43	4524	17.8	1296
43	4574	18	1296
43	4624	18.2	1296
43	4674	18.4	1296
43	4724	18.6	1296
43	4774	18.8	1296
43	4824	19	1296
43	4874	19.2	1296
43	4924	19.4	1296
43	4974	19.6	1296
43	5024	19.8	1296
39	71	0.200014479999	64
39	118	0.200033759999	64
38	42	0.20000576	64
38	133	0.200138079999	1296
38	178	0.40010432	1296
38	228	0.60010432	1296
38	278	0.80010432	1296
38	328	1.00010432	1296
38	378	1.20010432	1296
38	428	1.40010432	1296
38	478	1.60010432	1296
38	528	1.80010432	1296
38	578	2.00010432	1296
38	628	2.20010432	1296
38	678	2.40010432	1296
38	728	2.60010432	1296
38	778	2.80010432	1296
38	828	3.00010432	1296
38	878	3.20010432	1296
38	928	3.40010432	1296
38	978	3.60010432	1296
38	1028	3.80010432	1296
38	1078	4.00010432	1296
38	1128	4.20010432	1296
38	1178	4.40010432	1296
38	1228	4.60010432	1296
38	1278	4.80010432	1296
38	1328	5.00010432	1296
38	1378	5.20010432	1296
38	1428	5.40010432	1296
38	1478	5.60010432	1296
38	1528	5.80010432	1296
38	1578	6.00010432	1296
38	1628	6.20010432	1296
38	1678	6.40010432	1296
38	1728	6.60010432	1296
38	1778	6.80010432	1296
38	1828	7.00010432	1296
38	1878	7.20010432	1296
38	1928	7.40010432	1296
38	1978	7.60010432	1296
38	2028	7.80010432	1296
38	2078	8.00010432	1296
38	2128	8.20010432	1296
38	2178	8.40010432	1296
38	2228	8.60010432	1296
38	2278	8.80010432	1296
38	2328	9.00010432	1296
38	2378	9.20010432	1296
38	2428	9.40010432	1296
38	2478	9.60010432	1296
38	2528	9.80010432	1296
38	2578	10.00010432	1296
38	2628	10.20010432	1296
38	2678	10.40010432	1296
38	2728	10.60010432	1296
38	2778	10.80010432	1296
38	2828	11.00010432	1296
38	2878	11.20010432	1296
38	2928	11.40010432	1296
38	2978	11.60010432	1296
38	3028	11.80010432	1296
38	3078	12.00010432	1296
38	3128	12.20010432	1296
38	3178	12.40010432	1296
38	3228	12.60010432	1296
38	3278	12.80010432	1296
38	3328	13.00010432	1296
38	3378	13.20010432	1296
38	3428	13.40010432	1296
38	3478	13.60010432	1296
38	3528	13.80010432	1296
38	3578	14.00010432	1296
38	3628	14.20010432	1296
38	3678	14.40010432	1296
38	3728	14.60010432	1296
38	3778	14.80010432	1296
38	3828	15.00010432	1296
38	3878	15.20010432	1296
38	3928	15.40010432	1296
38	3978	15.60010432	1296
38	4028	15.80010432	1296
38	4078	16.00010432	1296
38	4128	16.20010432	1296
38	4178	16.40010432	1296
38	4228	16.60010432	1296
38	4278	16.80010432	1296
38	4328	17.00010432	1296
38	4378	17.20010432	1296
38	4428	17.40010432	1296
38	4478	17.60010432	1296
38	4528	17.80010432	1296
38	4578	18.00010432	1296
38	4628	18.20010432	1296
38	4678	18.40010432	1296
38	4728	18.60010432	1296
38	4778	18.80010432	1296
38	4828	19.00010432	1296
38	4878	19.20010432	1296
38	4928	19.40010432	1296
38	4978	19.60010432	1296
38	5028	19.80010432	1296
40	71	0.200014479999	64
40	118	0.200033759999	64
48	73	0.200014479999	28
48	119	0.200033759999	28
47	36	0.2	28
47	124	0.200033759999	1278
47	172	0.4	1278
47	222	0.6	1278
47	272	0.8	1278
47	322	1	1278
47	372	1.2	1278
47	422	1.4	1278
47	472	1.6	1278
47	522	1.8	1278
47	572	2	1278
47	622	2.2	1278
47	672	2.4	1278
47	722	2.6	1278
47	772	2.8	1278
47	822	3	1278
47	872	3.2	1278
47	922	3.4	1278
47	972	3.6	1278
47	1022	3.8	1278
47	1072	4	1278
47	1122	4.2	1278
47	1172	4.4	1278
47	1222	4.6	1278
47	1272	4.8	1278
47	1322	5	1278
47	1372	5.2	1278
47	1422	5.4	1278
47	1472	5.6	1278
47	1522	5.8	1278
47	1572	6	1278
47	1622	6.2	1278
47	1672	6.4	1278
47	1722	6.6	1278
47	1772	6.8	1278
47	1822	7	1278
47	1872	7.2	1278
47	1922	7.4	1278
47	1972	7.6	1278
47	2022	7.8	1278
47	2072	8	1278
47	2122	8.2	1278
47	2172	8.4	1278
47	2222	8.6	1278
47	2272	8.8	1278
47	2322	9	1278
47	2372	9.2	1278
47	2422	9.4	1278
47	2472	9.6	1278
47	2522	9.8	1278
47	2572	10	1278
47	2622	10.2	1278
47	2672	10.4	1278
47	2722	10.6	1278
47	2772	10.8	1278
47	2822	11	1278
47	2872	11.2	1278
47	2922	11.4	1278
47	2972	11.6	1278
47	3022	11.8	1278
47	3072	12	1278
47	3122	12.2	1278
47	3172	12.4	1278
47	3222	12.6	1278
47	3272	12.8	1278
47	3322	13	1278
47	3372	13.2	1278
47	3422	13.4	1278
47	3472	13.6	1278
47	3522	13.8	1278
47	3572	14	1278
47	3622	14.2	1278
47	3672	14.4	1278
47	3722	14.6	1278
47	3772	14.8	1278
47	3822	15	1278
47	3872	15.2	1278
47	3922	15.4	1278
47	3972	15.6	1278
47	4022	15.8	1278
47	4072	16	1278
47	4122	16.2	1278
47	4172	16.4	1278
47	4222	16.6	1278
47	4272	16.8	1278
47	4322	17	1278
47	4372	17.2	1278
47	4422	17.4	1278
47	4472	17.6	1278
47	4522	17.8	1278
47	4572	18	1278
47	4622	18.2	1278
47	4672	18.4	1278
47	4722	18.6	1278
47	4772	18.8	1278
47	4822	19	1278
47	4872	19.2	1278
47	4922	19.4	1278
47	4972	19.6	1278
47	5022	19.8	1278
26	18	0.2	1250
26	160	0.4	1250
26	210	0.6	1250
26	260	0.8	1250
26	310	1	1250
26	360	1.2	1250
26	410	1.4	1250
26	460	1.6	1250
26	510	1.8	1250
26	560	2	1250
26	610	2.2	1250
26	660	2.4	1250
26	710	2.6	1250
26	760	2.8	1250
26	810	3	1250
26	860	3.2	1250
26	910	3.4	1250
26	960	3.6	1250
26	1010	3.8	1250
26	1060	4	1250
26	1110	4.2	1250
26	1160	4.4	1250
26	1210	4.6	1250
26	1260	4.8	1250
26	1310	5	1250
26	1360	5.2	1250
26	1410	5.4	1250
26	1460	5.6	1250
26	1510	5.8	1250
26	1560	6	1250
26	1610	6.2	1250
26	1660	6.4	1250
26	1710	6.6	1250
26	1760	6.8	1250
26	1810	7	1250
26	1860	7.2	1250
26	1910	7.4	1250
26	1960	7.6	1250
26	2010	7.8	1250
26	2060	8	1250
26	2110	8.2	1250
26	2160	8.4	1250
26	2210	8.6	1250
26	2260	8.8	1250
26	2310	9	1250
26	2360	9.2	1250
26	2410	9.4	1250
26	2460	9.6	1250
26	2510	9.8	1250
26	2560	10	1250
26	2610	10.2	1250
26	2660	10.4	1250
26	2710	10.6	1250
26	2760	10.8	1250
26	2810	11	1250
26	2860	11.2	1250
26	2910	11.4	1250
26	2960	11.6	1250
26	3010	11.8	1250
26	3060	12	1250
26	3110	12.2	1250
26	3160	12.4	1250
26	3210	12.6	1250
26	3260	12.8	1250
26	3310	13	1250
26	3360	13.2	1250
26	3410	13.4	1250
26	3460	13.6	1250
26	3510	13.8	1250
26	3560	14	1250
26	3610	14.2	1250
26	3660	14.4	1250
26	3710	14.6	1250
26	3760	14.8	1250
26	3810	15	1250
26	3860	15.2	1250
26	3910	15.4	1250
26	3960	15.6	1250
26	4010	15.8	1250
26	4060	16	1250
26	4110	16.2	1250
26	4160	16.4	1250
26	4210	16.6	1250
26	4260	16.8	1250
26	4310	17	1250
26	4360	17.2	1250
26	4410	17.4	1250
26	4460	17.6	1250
26	4510	17.8	1250
26	4560	18	1250
26	4610	18.2	1250
26	4660	18.4	1250
26	4710	18.6	1250
26	4760	18.8	1250
26	4810	19	1250
26	4860	19.2	1250
26	4910	19.4	1250
26	4960	19.6	1250
26	5010	19.8	1250
28	26	0.2	1258
28	164	0.4	1258
28	214	0.6	1258
28	264	0.8	1258
28	314	1	1258
28	364	1.2	1258
28	414	1.4	1258
28	464	1.6	1258
28	514	1.8	1258
28	564	2	1258
28	614	2.2	1258
28	664	2.4	1258
28	714	2.6	1258
28	764	2.8	1258
28	814	3	1258
28	864	3.2	1258
28	914	3.4	1258
28	964	3.6	1258
28	1014	3.8	1258
28	1064	4	1258
28	1114	4.2	1258
28	1164	4.4	1258
28	1214	4.6	1258
28	1264	4.8	1258
28	1314	5	1258
28	1364	5.2	1258
28	1414	5.4	1258
28	1464	5.6	1258
28	1514	5.8	1258
28	1564	6	1258
28	1614	6.2	1258
28	1664	6.4	1258
28	1714	6.6	1258
28	1764	6.8	1258
28	1814	7	1258
28	1864	7.2	1258
28	1914	7.4	1258
28	1964	7.6	1258
28	2014	7.8	1258
28	2064	8	1258
28	2114	8.2	1258
28	2164	8.4	1258
28	2214	8.6	1258
28	2264	8.8	1258
28	2314	9	1258
28	2364	9.2	1258
28	2414	9.4	1258
28	2464	9.6	1258
28	2514	9.8	1258
28	2564	10	1258
28	2614	10.2	1258
28	2664	10.4	1258
28	2714	10.6	1258
28	2764	10.8	1258
28	2814	11	1258
28	2864	11.2	1258
28	2914	11.4	1258
28	2964	11.6	1258
28	3014	11.8	1258
28	3064	12	1258
28	3114	12.2	1258
28	3164	12.4	1258
28	3214	12.6	1258
28	3264	12.8	1258
28	3314	13	1258
28	3364	13.2	1258
28	3414	13.4	1258
28	3464	13.6	1258
28	3514	13.8	1258
28	3564	14	1258
28	3614	14.2	1258
28	3664	14.4	1258
28	3714	14.6	1258
28	3764	14.8	1258
28	3814	15	1258
28	3864	15.2	1258
28	3914	15.4	1258
28	3964	15.6	1258
28	4014	15.8	1258
28	4064	16	1258
28	4114	16.2	1258
28	4164	16.4	1258
28	4214	16.6	1258
28	4264	16.8	1258
28	4314	17	1258
28	4364	17.2	1258
28	4414	17.4	1258
28	4464	17.6	1258
28	4514	17.8	1258
28	4564	18	1258
28	4614	18.2	1258
28	4664	18.4	1258
28	4714	18.6	1258
28	4764	18.8	1258
28	4814	19	1258
28	4864	19.2	1258
28	4914	19.4	1258
28	4964	19.6	1258
28	5014	19.8	1258
1	17	0.2	1250
1	159	0.4	1250
1	209	0.6	1250
1	259	0.8	1250
1	309	1	1250
1	359	1.2	1250
1	409	1.4	1250
1	459	1.6	1250
1	509	1.8	1250
1	559	2	1250
1	609	2.2	1250
1	659	2.4	1250
1	709	2.6	1250
1	759	2.8	1250
1	809	3	1250
1	859	3.2	1250
1	909	3.4	1250
1	959	3.6	1250
1	1009	3.8	1250
1	1059	4	1250
1	1109	4.2	1250
1	1159	4.4	1250
1	1209	4.6	1250
1	1259	4.8	1250
1	1309	5	1250
1	1359	5.2	1250
1	1409	5.4	1250
1	1459	5.6	1250
1	1509	5.8	1250
1	1559	6	1250
1	1609	6.2	1250
1	1659	6.4	1250
1	1709	6.6	1250
1	1759	6.8	1250
1	1809	7	1250
1	1859	7.2	1250
1	1909	7.4	1250
1	1959	7.6	1250
1	2009	7.8	1250
1	2059	8	1250
1	2109	8.2	1250
1	2159	8.4	1250
1	2209	8.6	1250
1	2259	8.8	1250
1	2309	9	1250
1	2359	9.2	1250
1	2409	9.4	1250
1	2459	9.6	1250
1	2509	9.8	1250
1	2559	10	1250
1	2609	10.2	1250
1	2659	10.4	1250
1	2709	10.6	1250
1	2759	10.8	1250
1	2809	11	1250
1	2859	11.2	1250
1	2909	11.4	1250
1	2959	11.6	1250
1	3009	11.8	1250
1	3059	12	1250
1	3109	12.2	1250
1	3159	12.4	1250
1	3209	12.6	1250
1	3259	12.8	1250
1	3309	13	1250
1	3359	13.2	1250
1	3409	13.4	1250
1	3459	13.6	1250
1	3509	13.8	1250
1	3559	14	1250
1	3609	14.2	1250
1	3659	14.4	1250
1	3709	14.6	1250
1	3759	14.8	1250
1	3809	15	1250
1	3859	15.2	1250
1	3909	15.4	1250
1	3959	15.6	1250
1	4009	15.8	1250
1	4059	16	1250
1	4109	16.2	1250
1	4159	16.4	1250
1	4209	16.6	1250
1	4259	16.8	1250
1	4309	17	1250
1	4359	17.2	1250
1	4409	17.4	1250
1	4459	17.6	1250
1	4509	17.8	1250
1	4559	18	1250
1	4609	18.2	1250
1	4659	18.4	1250
1	4709	18.6	1250
1	4759	18.8	1250
1	4809	19	1250
1	4859	19.2	1250
1	4909	19.4	1250
1	4959	19.6	1250
1	5009	19.8	1250
1	5060	20	1250
1	5085	20.2	1250
1	5110	20.4	1250
1	5135	20.6	1250
1	5160	20.8	1250
1	5185	21	1250
1	5210	21.2	1250
1	5235	21.4	1250
1	5260	21.6	1250
1	5285	21.8	1250
1	5310	22	1250
1	5335	22.2	1250
1	5360	22.4	1250
1	5385	22.6	1250
1	5410	22.8	1250
1	5435	23	1250
1	5460	23.2	1250
1	5485	23.4	1250
1	5510	23.6	1250
1	5535	23.8	1250
1	5560	24	1250
1	5585	24.2	1250
1	5610	24.4	1250
1	5635	24.6	1250
1	5660	24.8	1250
1	5685	25	1250
1	5710	25.2	1250
1	5735	25.4	1250
1	5760	25.6	1250
1	5785	25.8	1250
1	5810	26	1250
1	5835	26.2	1250
1	5860	26.4	1250
1	5885	26.6	1250
1	5910	26.8	1250
1	5935	27	1250
1	5960	27.2	1250
1	5985	27.4	1250
1	6010	27.6	1250
1	6035	27.8	1250
1	6060	28	1250
1	6085	28.2	1250
1	6110	28.4	1250
1	6135	28.6	1250
1	6160	28.8	1250
1	6185	29	1250
1	6210	29.2	1250
1	6235	29.4	1250
1	6260	29.6	1250
1	6285	29.8	1250
1	6310	30	1250
1	6335	30.2	1250
1	6360	30.4	1250
1	6385	30.6	1250
1	6410	30.8	1250
1	6435	31	1250
1	6460	31.2	1250
1	6485	31.4	1250
1	6510	31.6	1250
1	6535	31.8	1250
1	6560	32	1250
1	6585	32.2	1250
1	6610	32.4	1250
1	6635	32.6	1250
1	6660	32.8	1250
1	6685	33	1250
1	6710	33.2	1250
1	6735	33.4	1250
1	6760	33.6	1250
1	6785	33.8	1250
1	6810	34	1250
1	6835	34.2	1250
1	6860	34.4	1250
1	6885	34.6	1250
1	6910	34.8	1250
1	6935	35	1250
1	6960	35.2	1250
1	6985	35.4	1250
1	7010	35.6	1250
1	7035	35.8	1250
1	7060	36	1250
1	7085	36.2	1250
1	7110	36.4	1250
1	7135	36.6	1250
1	7160	36.8	1250
1	7185	37	1250
1	7210	37.2	1250
1	7235	37.4	1250
1	7260	37.6	1250
1	7285	37.8	1250
1	7310	38	1250
1	7335	38.2	1250
1	7360	38.4	1250
1	7385	38.6	1250
1	7410	38.8	1250
1	7435	39	1250
1	7460	39.2	1250
1	7485	39.4	1250
1	7510	39.6	1250
1	7535	39.8	1250
1	7560	40	1250
1	7585	40.2	1250
1	7610	40.4	1250
1	7635	40.6	1250
1	7660	40.8	1250
1	7685	41	1250
1	7710	41.2	1250
1	7735	41.4	1250
1	7760	41.6	1250
1	7785	41.8	1250
1	7810	42	1250
1	7835	42.2	1250
1	7860	42.4	1250
1	7885	42.6	1250
1	7910	42.8	1250
1	7935	43	1250
1	7960	43.2	1250
1	7985	43.4	1250
1	8010	43.6	1250
1	8035	43.8	1250
1	8060	44	1250
1	8085	44.2	1250
1	8110	44.4	1250
1	8135	44.6	1250
1	8160	44.8	1250
1	8185	45	1250
1	8210	45.2	1250
1	8235	45.4	1250
1	8260	45.6	1250
1	8285	45.8	1250
1	8310	46	1250
1	8335	46.2	1250
1	8360	46.4	1250
1	8385	46.6	1250
1	8410	46.8	1250
1	8435	47	1250
1	8460	47.2	1250
1	8485	47.4	1250
1	8510	47.6	1250
1	8535	47.8	1250
1	8560	48	1250
1	8585	48.2	1250
1	8610	48.4	1250
1	8635	48.6	1250
1	8660	48.8	1250
1	8685	49	1250
1	8710	49.2	1250
1	8735	49.4	1250
1	8760	49.6	1250
1	8785	49.8	1250
1	8810	50	1250
1	8835	50.2	1250
1	8860	50.4	1250
1	8885	50.6	1250
1	8910	50.8	1250
1	8935	51	1250
1	8960	51.2	1250
1	8985	51.4	1250
1	9010	51.6	1250
1	9035	51.8	1250
1	9060	52	1250
1	9085	52.2	1250
1	9110	52.4	1250
1	9135	52.6	1250
1	9160	52.8	1250
1	9185	53	1250
1	9210	53.2	1250
1	9235	53.4	1250
1	9260	53.6	1250
1	9285	53.8	1250
1	9310	54	1250
1	9335	54.2	1250
1	9360	54.4	1250
1	9385	54.6	1250
1	9410	54.8	1250
1	9435	55	1250
1	9460	55.2	1250
1	9485	55.4	1250
1	9510	55.6	1250
1	9535	55.8	1250
1	9560	56	1250
1	9585	56.2	1250
1	9610	56.4	1250
1	9635	56.6	1250
1	9660	56.8	1250
1	9685	57	1250
1	9710	57.2	1250
1	9735	57.4	1250
1	9760	57.6	1250
1	9785	57.8	1250
1	9810	58	1250
1	9835	58.2	1250
1	9860	58.4	1250
1	9885	58.6	1250
1	9910	58.8	1250
1	9935	59	1250
1	9960	59.2	1250
1	9985	59.4	1250
1	10010	59.6	1250
1	10035	59.8	1250
1	10060	60	1250
1	10085	60.2	1250
1	10110	60.4	1250
1	10135	60.6	1250
1	10160	60.8	1250
1	10185	61	1250
1	10210	61.2	1250
1	10235	61.4	1250
1	10260	61.6	1250
1	10285	61.8	1250
1	10310	62	1250
1	10335	62.2	1250
1	10360	62.4	1250
1	10385	62.6	1250
1	10410	62.8	1250
1	10435	63	1250
1	10460	63.2	1250
1	10485	63.4	1250
1	10510	63.6	1250
1	10535	63.8	1250
1	10560	64	1250
1	10585	64.2	1250
1	10610	64.4	1250
1	10635	64.6	1250
1	10660	64.8	1250
1	10685	65	1250
1	10710	65.2	1250
1	10735	65.4	1250
1	10760	65.6	1250
1	10785	65.8	1250
1	10810	66	1250
1	10835	66.2	1250
1	10860	66.4	1250
1	10885	66.6	1250
1	10910	66.8	1250
1	10935	67	1250
1	10960	67.2	1250
1	10985	67.4	1250
1	11010	67.6	1250
1	11035	67.8	1250
1	11060	68	1250
1	11085	68.2	1250
1	11110	68.4	1250
1	11135	68.6	1250
1	11160	68.8	1250
1	11185	69	1250
1	11210	69.2	1250
1	11235	69.4	1250
1	11260	69.6	1250
1	11285	69.8	1250
1	11310	70	1250
1	11335	70.2	1250
1	11360	70.4	1250
1	11385	70.6	1250
1	11410	70.8	1250
1	11435	71	1250
1	11460	71.2	1250
1	11485	71.4	1250
1	11510	71.6	1250
1	11535	71.8	1250
1	11560	72	1250
1	11585	72.2	1250
1	11610	72.4	1250
1	11635	72.6	1250
1	11660	72.8	1250
1	11685	73	1250
1	11710	73.2	1250
1	11735	73.4	1250
1	11760	73.6	1250
1	11785	73.8	1250
1	11810	74	1250
1	11835	74.2	1250
1	11860	74.4	1250
1	11885	74.6	1250
1	11910	74.8	1250
1	11935	75	1250
1	11960	75.2	1250
1	11985	75.4	1250
1	12010	75.6	1250
1	12035	75.8	1250
1	12060	76	1250
1	12085	76.2	1250
1	12110	76.4	1250
1	12135	76.6	1250
1	12160	76.8	1250
1	12185	77	1250
1	12210	77.2	1250
1	12235	77.4	1250
1	12260	77.6	1250
1	12285	77.8	1250
1	12310	78	1250
1	12335	78.2	1250
1	12360	78.4	1250
1	12385	78.6	1250
1	12410	78.8	1250
1	12435	79	1250
1	12460	79.2	1250
1	12485	79.4	1250
1	12510	79.6	1250
1	12535	79.8	1250
1	12560	80	1250
1	12585	80.2	1250
1	12610	80.4	1250
1	12635	80.6	1250
1	12660	80.8	1250
1	12685	81	1250
1	12710	81.2	1250
1	12735	81.4	1250
1	12760	81.6	1250
1	12785	81.8	1250
1	12810	82	1250
1	12835	82.2	1250
1	12860	82.4	1250
1	12885	82.6	1250
1	12910	82.8	1250
1	12935	83	1250
1	12960	83.2	1250
1	12985	83.4	1250
1	13010	83.6	1250
1	13035	83.8	1250
1	13060	84	1250
1	13085	84.2	1250
1	13110	84.4	1250
1	13135	84.6	1250
1	13160	84.8	1250
1	13185	85	1250
1	13210	85.2	1250
1	13235	85.4	1250
1	13260	85.6	1250
1	13285	85.8	1250
1	13310	86	1250
1	13335	86.2	1250
1	13360	86.4	1250
1	13385	86.6	1250
1	13410	86.8	1250
1	13435	87	1250
1	13460	87.2	1250
1	13485	87.4	1250
1	13510	87.6	1250
1	13535	87.8	1250
1	13560	88	1250
1	13585	88.2	1250
1	13610	88.4	1250
1	13635	88.6	1250
1	13660	88.8	1250
1	13685	89	1250
1	13710	89.2	1250
1	13735	89.4	1250
1	13760	89.6	1250
1	13785	89.8	1250
1	13810	90	1250
1	13835	90.2	1250
1	13860	90.4	1250
1	13885	90.6	1250
1	13910	90.8	1250
1	13935	91	1250
1	13960	91.2	1250
1	13985	91.4	1250
1	14010	91.6	1250
1	14035	91.8	1250
1	14060	92	1250
1	14085	92.2	1250
1	14110	92.4	1250
1	14135	92.6	1250
1	14160	92.8	1250
1	14185	93	1250
1	14210	93.2	1250
1	14235	93.4	1250
1	14260	93.6	1250
1	14285	93.8	1250
1	14310	94	1250
1	14335	94.2	1250
1	14360	94.4	1250
1	14385	94.6	1250
1	14410	94.8	1250
1	14435	95	1250
1	14460	95.2	1250
1	14485	95.4	1250
1	14510	95.6	1250
1	14535	95.8	1250
1	14560	96	1250
1	14585	96.2	1250
1	14610	96.4	1250
1	14635	96.6	1250
1	14660	96.8	1250
1	14685	97	1250
1	14710	97.2	1250
1	14735	97.4	1250
1	14760	97.6	1250
1	14785	97.8	1250
1	14810	98	1250
1	14835	98.2	1250
1	14860	98.4	1250
1	14885	98.6	1250
1	14910	98.8	1250
1	14935	99	1250
1	14960	99.2	1250
1	14985	99.4	1250
1	15010	99.6	1250
1	15035	99.8	1250
1	15060	100	1250
1	15085	100.2	1250
1	15110	100.4	1250
1	15135	100.6	1250
1	15160	100.8	1250
1	15185	101	1250
1	15210	101.2	1250
1	15235	101.4	1250
1	15260	101.6	1250
1	15285	101.8	1250
1	15310	102	1250
1	15335	102.2	1250
1	15360	102.4	1250
1	15385	102.6	1250
1	15410	102.8	1250
1	15435	103	1250
1	15460	103.2	1250
1	15485	103.4	1250
1	15510	103.6	1250
1	15535	103.8	1250
1	15560	104	1250
1	15585	104.2	1250
1	15610	104.4	1250
1	15635	104.6	1250
1	15660	104.8	1250
1	15685	105	1250
1	15710	105.2	1250
1	15735	105.4	1250
1	15760	105.6	1250
1	15785	105.8	1250
1	15810	106	1250
1	15835	106.2	1250
1	15860	106.4	1250
1	15885	106.6	1250
1	15910	106.8	1250
1	15935	107	1250
1	15960	107.2	1250
1	15985	107.4	1250
1	16010	107.6	1250
1	16035	107.8	1250
1	16060	108	1250
1	16085	108.2	1250
1	16110	108.4	1250
1	16135	108.6	1250
1	16160	108.8	1250
1	16185	109	1250
1	16210	109.2	1250
1	16235	109.4	1250
1	16260	109.6	1250
1	16285	109.8	1250
1	16310	110	1250
1	16335	110.2	1250
1	16360	110.4	1250
1	16385	110.6	1250
1	16410	110.8	1250
1	16435	111	1250
1	16460	111.2	1250
1	16485	111.4	1250
1	16510	111.6	1250
1	16535	111.8	1250
1	16560	112	1250
1	16585	112.2	1250
1	16610	112.4	1250
1	16635	112.6	1250
1	16660	112.8	1250
1	16685	113	1250
1	16710	113.2	1250
1	16735	113.4	1250
1	16760	113.6	1250
1	16785	113.8	1250
1	16810	114	1250
1	16835	114.2	1250
1	16860	114.4	1250
1	16885	114.6	1250
1	16910	114.8	1250
1	16935	115	1250
1	16960	115.2	1250
1	16985	115.4	1250
1	17010	115.6	1250
1	17035	115.8	1250
1	17060	116	1250
1	17085	116.2	1250
1	17110	116.4	1250
1	17135	116.6	1250
1	17160	116.8	1250
1	17185	117	1250
1	17210	117.2	1250
1	17235	117.4	1250
1	17260	117.6	1250
1	17285	117.8	1250
1	17310	118	1250
1	17335	118.2	1250
1	17360	118.4	1250
1	17385	118.6	1250
1	17410	118.8	1250
1	17435	119	1250
1	17460	119.2	1250
1	17485	119.4	1250
1	17510	119.6	1250
1	17535	119.8	1250
1	17560	120	1250
1	17585	120.2	1250
1	17611	120.4	1250
1	17673	120.6	1250
1	17698	120.8	1250
1	17723	121	1250
1	17748	121.2	1250
1	17773	121.4	1250
1	17798	121.6	1250
1	17823	121.8	1250
1	17848	122	1250
1	17873	122.2	1250
1	17898	122.4	1250
1	17923	122.6	1250
1	17948	122.8	1250
1	17973	123	1250
1	17998	123.2	1250
1	18023	123.4	1250
1	18048	123.6	1250
1	18073	123.8	1250
1	18098	124	1250
1	18123	124.2	1250
1	18148	124.4	1250
1	18173	124.6	1250
1	18198	124.8	1250
1	18223	125	1250
1	18248	125.2	1250
1	18273	125.4	1250
1	18298	125.6	1250
1	18323	125.8	1250
1	18348	126	1250
1	18373	126.2	1250
1	18398	126.4	1250
1	18423	126.6	1250
1	18448	126.8	1250
1	18473	127	1250
1	18498	127.2	1250
1	18523	127.4	1250
1	18548	127.6	1250
1	18573	127.8	1250
1	18598	128	1250
1	18623	128.2	1250
1	18648	128.4	1250
1	18673	128.6	1250
1	18698	128.8	1250
1	18723	129	1250
1	18748	129.2	1250
1	18773	129.4	1250
1	18798	129.6	1250
1	18823	129.8	1250
1	18848	130	1250
1	18873	130.2	1250
1	18898	130.4	1250
1	18923	130.6	1250
1	18948	130.8	1250
1	18973	131	1250
1	18998	131.2	1250
1	19023	131.4	1250
1	19048	131.6	1250
1	19073	131.8	1250
1	19098	132	1250
1	19123	132.2	1250
1	19148	132.4	1250
1	19173	132.6	1250
1	19198	132.8	1250
1	19223	133	1250
1	19248	133.2	1250
1	19273	133.4	1250
1	19298	133.6	1250
1	19323	133.8	1250
1	19348	134	1250
1	19373	134.2	1250
1	19398	134.4	1250
1	19423	134.6	1250
1	19448	134.8	1250
1	19473	135	1250
1	19498	135.2	1250
1	19523	135.4	1250
1	19548	135.6	1250
1	19573	135.8	1250
1	19598	136	1250
1	19623	136.2	1250
1	19648	136.4	1250
1	19673	136.6	1250
1	19698	136.8	1250
1	19723	137	1250
1	19748	137.2	1250
1	19773	137.4	1250
1	19798	137.6	1250
1	19823	137.8	1250
1	19848	138	1250
1	19873	138.2	1250
1	19898	138.4	1250
1	19923	138.6	1250
1	19948	138.8	1250
1	19973	139	1250
1	19998	139.2	1250
1	20023	139.4	1250
1	20048	139.6	1250
1	20073	139.8	1250
1	20098	140	1250
1	20123	140.2	1250
1	20148	140.4	1250
1	20173	140.6	1250
1	20198	140.8	1250
1	20223	141	1250
1	20248	141.2	1250
1	20273	141.4	1250
1	20298	141.6	1250
1	20323	141.8	1250
1	20348	142	1250
1	20373	142.2	1250
1	20398	142.4	1250
1	20423	142.6	1250
1	20448	142.8	1250
1	20473	143	1250
1	20498	143.2	1250
1	20523	143.4	1250
1	20548	143.6	1250
1	20573	143.8	1250
1	20598	144	1250
1	20623	144.2	1250
1	20648	144.4	1250
1	20673	144.6	1250
1	20698	144.8	1250
1	20723	145	1250
1	20748	145.2	1250
1	20773	145.4	1250
1	20798	145.6	1250
1	20823	145.8	1250
1	20848	146	1250
1	20873	146.2	1250
1	20898	146.4	1250
1	20923	146.6	1250
1	20948	146.8	1250
1	20973	147	1250
1	20998	147.2	1250
1	21023	147.4	1250
1	21048	147.6	1250
1	21073	147.8	1250
1	21098	148	1250
1	21123	148.2	1250
1	21148	148.4	1250
1	21173	148.6	1250
1	21198	148.8	1250
1	21223	149	1250
1	21248	149.2	1250
1	21273	149.4	1250
1	21298	149.6	1250
1	21323	149.8	1250
1	21348	150	1250
1	21373	150.2	1250
1	21398	150.4	1250