file 8037728 1475478792                                         
version 2
run Simple_attack-0-20161003-09:13:04-3121
attr configname Simple_attack
attr datetime 20161003-09:13:04
attr experiment Simple_attack
attr inifile omnetpp.ini
attr iterationvars ""
attr iterationvars2 $repetition=0
attr measurement ""
attr network Scenario
attr processid 3121
attr repetition 0
attr replication #0
attr resultdir results
attr runnumber 0
attr seedset 0

vector 1  Scenario.client1.udpApp[0]  sentPk:vector(packetBytes)  ETV
attr interpolationmode  none
attr source  sentPk
attr title  "packets sent, vector(packetBytes)"
vector 26  Scenario.client2.udpApp[0]  sentPk:vector(packetBytes)  ETV
attr interpolationmode  none
attr source  sentPk
attr title  "packets sent, vector(packetBytes)"
vector 3  Scenario.client1.udp  sentPk:vector(packetBytes)  ETV
attr interpolationmode  none
attr source  sentPk
attr title  "packets sent, vector(packetBytes)"
vector 28  Scenario.client2.udp  sentPk:vector(packetBytes)  ETV
attr interpolationmode  none
attr source  sentPk
attr title  "packets sent, vector(packetBytes)"
vector 8  Scenario.client1.networkLayer.arp  sentReq:vector  ETV
attr title  "ARP request sent, vector"
vector 33  Scenario.client2.networkLayer.arp  sentReq:vector  ETV
attr title  "ARP request sent, vector"
vector 22  Scenario.client1.eth[0].encap  encapPk:vector(packetBytes)  ETV
attr interpolationmode  none
attr source  encapPk
attr title  "packets encapsulated, vector(packetBytes)"
vector 47  Scenario.client2.eth[0].encap  encapPk:vector(packetBytes)  ETV
attr interpolationmode  none
attr source  encapPk
attr title  "packets encapsulated, vector(packetBytes)"
vector 18  Scenario.client1.eth[0].mac  rxPkFromHL:vector(packetBytes)  ETV
attr interpolationmode  none
attr source  rxPkFromHL
attr title  "packet bytes from higher layer, vector(packetBytes)"
vector 43  Scenario.client2.eth[0].mac  rxPkFromHL:vector(packetBytes)  ETV
attr interpolationmode  none
attr source  rxPkFromHL
attr title  "packet bytes from higher layer, vector(packetBytes)"
vector 13  Scenario.client1.eth[0].mac  txPk:vector(packetBytes)  ETV
attr interpolationmode  none
attr source  txPk
attr title  "packets transmitted, vector(packetBytes)"
vector 38  Scenario.client2.eth[0].mac  txPk:vector(packetBytes)  ETV
attr interpolationmode  none
attr source  txPk
attr title  "packets transmitted, vector(packetBytes)"
vector 75  Scenario.switch.eth[0].mac  rxPkOk:vector(packetBytes)  ETV
attr interpolationmode  none
attr source  rxPkOk
attr title  "packets received OK, vector(packetBytes)"
vector 76  Scenario.switch.eth[0].mac  passedUpPk:vector(packetBytes)  ETV
attr interpolationmode  none
attr source  packetSentToUpper
attr title  "packets passed to higher layer, vector(packetBytes)"
vector 86  Scenario.switch.eth[1].mac  rxPkOk:vector(packetBytes)  ETV
attr interpolationmode  none
attr source  rxPkOk
attr title  "packets received OK, vector(packetBytes)"
vector 87  Scenario.switch.eth[1].mac  passedUpPk:vector(packetBytes)  ETV
attr interpolationmode  none
attr source  packetSentToUpper
attr title  "packets passed to higher layer, vector(packetBytes)"
vector 90  Scenario.switch.eth[1].mac  rxPkFromHL:vector(packetBytes)  ETV
attr interpolationmode  none
attr source  rxPkFromHL
attr title  "packet bytes from higher layer, vector(packetBytes)"
vector 101  Scenario.switch.eth[2].mac  rxPkFromHL:vector(packetBytes)  ETV
attr interpolationmode  none
attr source  rxPkFromHL
attr title  "packet bytes from higher layer, vector(packetBytes)"
vector 79  Scenario.switch.eth[0].mac  rxPkFromHL:vector(packetBytes)  ETV
attr interpolationmode  none
attr source  rxPkFromHL
attr title  "packet bytes from higher layer, vector(packetBytes)"
vector 96  Scenario.switch.eth[2].mac  txPk:vector(packetBytes)  ETV
attr interpolationmode  none
attr source  txPk
attr title  "packets transmitted, vector(packetBytes)"
vector 74  Scenario.switch.eth[0].mac  txPk:vector(packetBytes)  ETV
attr interpolationmode  none
attr source  txPk
attr title  "packets transmitted, vector(packetBytes)"
vector 85  Scenario.switch.eth[1].mac  txPk:vector(packetBytes)  ETV
attr interpolationmode  none
attr source  txPk
attr title  "packets transmitted, vector(packetBytes)"
vector 63  Scenario.server.eth[0].mac  rxPkOk:vector(packetBytes)  ETV
attr interpolationmode  none
attr source  rxPkOk
attr title  "packets received OK, vector(packetBytes)"
vector 64  Scenario.server.eth[0].mac  passedUpPk:vector(packetBytes)  ETV
attr interpolationmode  none
attr source  packetSentToUpper
attr title  "packets passed to higher layer, vector(packetBytes)"
vector 72  Scenario.server.eth[0].encap  decapPk:vector(packetBytes)  ETV
attr interpolationmode  none
attr source  decapPk
attr title  "packets decapsulated, vector(packetBytes)"
vector 58  Scenario.server.networkLayer.arp  sentReply:vector  ETV
attr title  "ARP replies sent, vector"
vector 71  Scenario.server.eth[0].encap  encapPk:vector(packetBytes)  ETV
attr interpolationmode  none
attr source  encapPk
attr title  "packets encapsulated, vector(packetBytes)"
vector 67  Scenario.server.eth[0].mac  rxPkFromHL:vector(packetBytes)  ETV
attr interpolationmode  none
attr source  rxPkFromHL
attr title  "packet bytes from higher layer, vector(packetBytes)"
vector 14  Scenario.client1.eth[0].mac  rxPkOk:vector(packetBytes)  ETV
attr interpolationmode  none
attr source  rxPkOk
attr title  "packets received OK, vector(packetBytes)"
vector 15  Scenario.client1.eth[0].mac  passedUpPk:vector(packetBytes)  ETV
attr interpolationmode  none
attr source  packetSentToUpper
attr title  "packets passed to higher layer, vector(packetBytes)"
vector 39  Scenario.client2.eth[0].mac  rxPkOk:vector(packetBytes)  ETV
attr interpolationmode  none
attr source  rxPkOk
attr title  "packets received OK, vector(packetBytes)"
vector 40  Scenario.client2.eth[0].mac  passedUpPk:vector(packetBytes)  ETV
attr interpolationmode  none
attr source  packetSentToUpper
attr title  "packets passed to higher layer, vector(packetBytes)"
vector 23  Scenario.client1.eth[0].encap  decapPk:vector(packetBytes)  ETV
attr interpolationmode  none
attr source  decapPk
attr title  "packets decapsulated, vector(packetBytes)"
vector 48  Scenario.client2.eth[0].encap  decapPk:vector(packetBytes)  ETV
attr interpolationmode  none
attr source  decapPk
attr title  "packets decapsulated, vector(packetBytes)"
vector 62  Scenario.server.eth[0].mac  txPk:vector(packetBytes)  ETV
attr interpolationmode  none
attr source  txPk
attr title  "packets transmitted, vector(packetBytes)"
vector 97  Scenario.switch.eth[2].mac  rxPkOk:vector(packetBytes)  ETV
attr interpolationmode  none
attr source  rxPkOk
attr title  "packets received OK, vector(packetBytes)"
vector 98  Scenario.switch.eth[2].mac  passedUpPk:vector(packetBytes)  ETV
attr interpolationmode  none
attr source  packetSentToUpper
attr title  "packets passed to higher layer, vector(packetBytes)"
vector 53  Scenario.server.udp  rcvdPk:vector(packetBytes)  ETV
attr interpolationmode  none
attr source  rcvdPk
attr title  "packets received, vector(packetBytes)"
vector 54  Scenario.server.udp  passedUpPk:vector(count)  ETV
attr interpolationmode  none
attr title  "packets passed up, vector(count)"
vector 50  Scenario.server.udpApp[0]  rcvdPk:vector(packetBytes)  ETV
attr interpolationmode  none
attr source  rcvdPk
attr title  "packets received, vector(packetBytes)"
vector 51  Scenario.server.udpApp[0]  endToEndDelay:vector  ETV
attr interpolationmode  none
attr source  messageAge(rcvdPk)
attr title  "end-to-end delay, vector"
attr unit  s
vector 21  Scenario.client1.eth[0].mac  droppedPkNotForUs:vector(packetBytes)  ETV
attr interpolationmode  none
attr source  dropPkNotForUs
attr title  "packets dropped/not for us, vector(packetBytes)"
vector 46  Scenario.client2.eth[0].mac  droppedPkNotForUs:vector(packetBytes)  ETV
attr interpolationmode  none
attr source  dropPkNotForUs
attr title  "packets dropped/not for us, vector(packetBytes)"
1	7949 23145 17 462754 0.2 250 1250 1250 1250 1562500 1953125000
3	31094 23127 24 462208 0.2 249.8 1249 1258 1258 1571242 1976622436
8	54221 45 29 436868 0.2 240.6 3 1 1 3 3
13	54266 33694 41 462239 0.20000576 249.80010432 1252 64 1296 1618896 2097852672
14	87960 157 70 436930 0.200014479999 240.600033753251 6 64 64 384 24576
15	88117 157 70 436930 0.200014479999 240.600033753251 6 64 64 384 24576
18	88274 24453 37 462218 0.2 249.8 1252 64 1296 1618896 2097852672
21	112727 62 105670 105674 120.200211599999 120.200218319998 2 72 1304 1376 1705600
22	112789 24453 35 462216 0.2 249.8 1252 28 1278 1596306 2039974068
23	137242 157 72 436931 0.200014479999 240.600033753251 6 28 28 168 4704
26	137399 24376 18 462205 0.2 249.8 1249 1250 1250 1561250 1951562500
28	161775 444765 26 462748 0.2 249.999999992716 17250 8 1258 1699250 1977646500
33	606540 60 30 435812 0.2 240.219999993273 3 1 1 3 3
38	606600 496416 42 462730 0.20000576 249.990005752716 17252 64 1296 2642896 2163388672
39	1103016 161 71 436905 0.200014479999 240.600014473251 6 64 64 384 24576
40	1103177 161 71 436905 0.200014479999 240.600014473251 6 64 64 384 24576
43	1103338 460847 38 462753 0.2 249.999999992716 17253 64 1296 2642960 2163392768
46	1564185 32 105671 105671 120.200211599999 120.200211599999 1 1304 1304 1304 1700416
47	1564217 460847 36 462752 0.2 249.999999992716 17253 28 1278 2044334 2052518852
48	2025064 161 73 436906 0.200014479999 240.600014473251 6 28 28 168 4704
50	2025225 516623 148 462745 0.20023768 249.990013512716 18498 0 1250 3122500 3903125000
51	2541848 665560 148 462745 0.20023768 249.990013512716 18498 1.352e-05 0.000342959999 0.93274926487287 0.00020272987200978
53	3207408 516623 146 462743 0.20023768 249.990013512716 18498 8 1258 3270484 3954268872
54	3724031 572015 146 462743 0.20023768 249.990013512716 18498 1 18498 171097251 2110028331749
58	4296046 150 63 436916 0.20001352 240.600020233251 6 1 1 6 6
62	4296196 156 82 436922 0.20001928 240.600025993251 6 64 64 384 24576
63	4296352 532779 59 462738 0.20001352 249.990013512716 18504 64 1296 4261792 4261241344
64	4829131 532779 59 462738 0.20001352 249.990013512716 18504 64 1296 4261792 4261241344
67	5361910 156 67 436920 0.20001352 240.600020233251 6 64 64 384 24576
71	5362066 156 66 436919 0.20001352 240.600020233251 6 28 28 168 4704
72	5362222 532779 60 462739 0.20001352 249.990013512716 18504 28 1278 3640612 4092492136
74	5895001 219 56 436928 0.200013479999 240.600032753251 8 64 1296 1744 1708288
75	5895220 33694 45 462241 0.20000676 249.80010532 1252 64 1296 1618896 2097852672
76	5928914 33694 45 462241 0.20000676 249.80010532 1252 64 1296 1618896 2097852672
79	5962608 210 51 436926 0.20000676 240.600026993251 8 64 1296 1744 1708288
85	5962818 193 57 436894 0.200013479999 240.600013473251 7 64 1296 1680 1704192
86	5963011 496416 46 462732 0.20000676 249.990006752716 17252 64 1296 2642896 2163388672
87	6459427 496416 46 462732 0.20000676 249.990006752716 17252 64 1296 2642896 2163388672
90	6955843 181 49 436888 0.20000676 240.60000676 7 64 1296 1680 1704192
96	6956024 532776 55 462736 0.20001252 249.990012512716 18504 64 1296 4261792 4261241344
97	7488800 157 94 436924 0.20002028 240.600026993251 6 64 64 384 24576
98	7488957 157 94 436924 0.20002028 240.600026993251 6 64 64 384 24576
101	7489114 548614 50 462734 0.20000676 249.990006752716 18504 64 1296 4261792 4261241344
