version 2
run seapp-attacks-0-20150503-17:08:53-2562
attr configname seapp-attacks
attr datetime 20150503-17:08:53
attr experiment seapp-attacks
attr inifile omnetpp.ini
attr iterationvars ""
attr iterationvars2 $repetition=0
attr measurement ""
attr network KIDSNw1
attr processid 2562
attr repetition 0
attr replication #0
attr resultdir results
attr runnumber 0
attr seedset 0

vector 27  KIDSNw1.host1.ppp[0].queue  queueLength:vector  ETV
attr interpolationmode  sample-hold
attr title  "queue length, vector"
vector 28  KIDSNw1.host1.ppp[0].ppp  txState:vector  ETV
attr interpolationmode  sample-hold
attr title  "tx state, vector"
vector 51  KIDSNw1.host2.ppp[0].queue  queueLength:vector  ETV
attr interpolationmode  sample-hold
attr title  "queue length, vector"
vector 52  KIDSNw1.host2.ppp[0].ppp  txState:vector  ETV
attr interpolationmode  sample-hold
attr title  "tx state, vector"
vector 75  KIDSNw1.host3.ppp[0].queue  queueLength:vector  ETV
attr interpolationmode  sample-hold
attr title  "queue length, vector"
vector 76  KIDSNw1.host3.ppp[0].ppp  txState:vector  ETV
attr interpolationmode  sample-hold
attr title  "tx state, vector"
vector 91  KIDSNw1.fhrouter1.ppp[0].queue  queueLength:vector  ETV
attr interpolationmode  sample-hold
attr title  "queue length, vector"
vector 92  KIDSNw1.fhrouter1.ppp[0].ppp  txState:vector  ETV
attr interpolationmode  sample-hold
attr title  "tx state, vector"
vector 102  KIDSNw1.fhrouter1.ppp[1].queue  queueLength:vector  ETV
attr interpolationmode  sample-hold
attr title  "queue length, vector"
vector 103  KIDSNw1.fhrouter1.ppp[1].ppp  txState:vector  ETV
attr interpolationmode  sample-hold
attr title  "tx state, vector"
vector 113  KIDSNw1.fhrouter1.ppp[2].queue  queueLength:vector  ETV
attr interpolationmode  sample-hold
attr title  "queue length, vector"
vector 114  KIDSNw1.fhrouter1.ppp[2].ppp  txState:vector  ETV
attr interpolationmode  sample-hold
attr title  "tx state, vector"
vector 129  KIDSNw1.fhrouter2.ppp[0].queue  queueLength:vector  ETV
attr interpolationmode  sample-hold
attr title  "queue length, vector"
vector 130  KIDSNw1.fhrouter2.ppp[0].ppp  txState:vector  ETV
attr interpolationmode  sample-hold
attr title  "tx state, vector"
vector 140  KIDSNw1.fhrouter2.ppp[1].queue  queueLength:vector  ETV
attr interpolationmode  sample-hold
attr title  "queue length, vector"
vector 141  KIDSNw1.fhrouter2.ppp[1].ppp  txState:vector  ETV
attr interpolationmode  sample-hold
attr title  "tx state, vector"
vector 168  KIDSNw1.irouter.ppp[0].queue  queueLength:vector  ETV
attr interpolationmode  sample-hold
attr title  "queue length, vector"
vector 169  KIDSNw1.irouter.ppp[0].ppp  txState:vector  ETV
attr interpolationmode  sample-hold
attr title  "tx state, vector"
vector 179  KIDSNw1.irouter.ppp[1].queue  queueLength:vector  ETV
attr interpolationmode  sample-hold
attr title  "queue length, vector"
vector 180  KIDSNw1.irouter.ppp[1].ppp  txState:vector  ETV
attr interpolationmode  sample-hold
attr title  "tx state, vector"
vector 195  KIDSNw1.bgrouter3.ppp[0].queue  queueLength:vector  ETV
attr interpolationmode  sample-hold
attr title  "queue length, vector"
vector 196  KIDSNw1.bgrouter3.ppp[0].ppp  txState:vector  ETV
attr interpolationmode  sample-hold
attr title  "tx state, vector"
vector 206  KIDSNw1.bgrouter3.ppp[1].queue  queueLength:vector  ETV
attr interpolationmode  sample-hold
attr title  "queue length, vector"
vector 207  KIDSNw1.bgrouter3.ppp[1].ppp  txState:vector  ETV
attr interpolationmode  sample-hold
attr title  "tx state, vector"
vector 222  KIDSNw1.bgrouter4.ppp[0].queue  queueLength:vector  ETV
attr interpolationmode  sample-hold
attr title  "queue length, vector"
vector 223  KIDSNw1.bgrouter4.ppp[0].ppp  txState:vector  ETV
attr interpolationmode  sample-hold
attr title  "tx state, vector"
vector 233  KIDSNw1.bgrouter4.ppp[1].queue  queueLength:vector  ETV
attr interpolationmode  sample-hold
attr title  "queue length, vector"
vector 234  KIDSNw1.bgrouter4.ppp[1].ppp  txState:vector  ETV
attr interpolationmode  sample-hold
attr title  "tx state, vector"
vector 12  KIDSNw1.host1.udpApp[0]  sentPk:vector(packetBytes)  ETV
attr interpolationmode  none
attr source  sentPk
attr title  "packets sent, vector(packetBytes)"
vector 36  KIDSNw1.host2.udpApp[0]  sentPk:vector(packetBytes)  ETV
attr interpolationmode  none
attr source  sentPk
attr title  "packets sent, vector(packetBytes)"
vector 60  KIDSNw1.host3.udpApp[0]  sentPk:vector(packetBytes)  ETV
attr interpolationmode  none
attr source  sentPk
attr title  "packets sent, vector(packetBytes)"
vector 14  KIDSNw1.host1.udp  sentPk:vector(packetBytes)  ETV
attr interpolationmode  none
attr source  sentPk
attr title  "packets sent, vector(packetBytes)"
vector 38  KIDSNw1.host2.udp  sentPk:vector(packetBytes)  ETV
attr interpolationmode  none
attr source  sentPk
attr title  "packets sent, vector(packetBytes)"
vector 62  KIDSNw1.host3.udp  sentPk:vector(packetBytes)  ETV
attr interpolationmode  none
attr source  sentPk
attr title  "packets sent, vector(packetBytes)"
vector 24  KIDSNw1.host1.ppp[0].queue  rcvdPk:vector(packetBytes)  ETV
attr interpolationmode  none
attr title  "received packets, vector(packetBytes)"
vector 26  KIDSNw1.host1.ppp[0].queue  queueingTime:vector  ETV
attr interpolationmode  none
attr title  "queueing time, vector"
vector 48  KIDSNw1.host2.ppp[0].queue  rcvdPk:vector(packetBytes)  ETV
attr interpolationmode  none
attr title  "received packets, vector(packetBytes)"
vector 50  KIDSNw1.host2.ppp[0].queue  queueingTime:vector  ETV
attr interpolationmode  none
attr title  "queueing time, vector"
vector 72  KIDSNw1.host3.ppp[0].queue  rcvdPk:vector(packetBytes)  ETV
attr interpolationmode  none
attr title  "received packets, vector(packetBytes)"
vector 74  KIDSNw1.host3.ppp[0].queue  queueingTime:vector  ETV
attr interpolationmode  none
attr title  "queueing time, vector"
vector 33  KIDSNw1.host1.ppp[0].ppp  rcvdPkFromHL:vector(packetBytes)  ETV
attr interpolationmode  none
attr source  packetReceivedFromUpper
attr title  "packets received from higher layer, vector(packetBytes)"
vector 29  KIDSNw1.host1.ppp[0].ppp  txPk:vector(packetBytes)  ETV
attr interpolationmode  none
attr source  packetSentToLower
attr title  "packets transmitted, vector(packetBytes)"
vector 57  KIDSNw1.host2.ppp[0].ppp  rcvdPkFromHL:vector(packetBytes)  ETV
attr interpolationmode  none
attr source  packetReceivedFromUpper
attr title  "packets received from higher layer, vector(packetBytes)"
vector 53  KIDSNw1.host2.ppp[0].ppp  txPk:vector(packetBytes)  ETV
attr interpolationmode  none
attr source  packetSentToLower
attr title  "packets transmitted, vector(packetBytes)"
vector 81  KIDSNw1.host3.ppp[0].ppp  rcvdPkFromHL:vector(packetBytes)  ETV
attr interpolationmode  none
attr source  packetReceivedFromUpper
attr title  "packets received from higher layer, vector(packetBytes)"
vector 77  KIDSNw1.host3.ppp[0].ppp  txPk:vector(packetBytes)  ETV
attr interpolationmode  none
attr source  packetSentToLower
attr title  "packets transmitted, vector(packetBytes)"
vector 94  KIDSNw1.fhrouter1.ppp[0].ppp  rxPkOk:vector(packetBytes)  ETV
attr interpolationmode  none
attr source  rxPkOk
attr title  "packets received OK, vector(packetBytes)"
vector 98  KIDSNw1.fhrouter1.ppp[0].ppp  passedUpPk:vector(packetBytes)  ETV
attr interpolationmode  none
attr source  packetSentToUpper
attr title  "packets passed to higher layer, vector(packetBytes)"
vector 99  KIDSNw1.fhrouter1.ppp[1].queue  rcvdPk:vector(packetBytes)  ETV
attr interpolationmode  none
attr title  "received packets, vector(packetBytes)"
vector 101  KIDSNw1.fhrouter1.ppp[1].queue  queueingTime:vector  ETV
attr interpolationmode  none
attr title  "queueing time, vector"
vector 108  KIDSNw1.fhrouter1.ppp[1].ppp  rcvdPkFromHL:vector(packetBytes)  ETV
attr interpolationmode  none
attr source  packetReceivedFromUpper
attr title  "packets received from higher layer, vector(packetBytes)"
vector 104  KIDSNw1.fhrouter1.ppp[1].ppp  txPk:vector(packetBytes)  ETV
attr interpolationmode  none
attr source  packetSentToLower
attr title  "packets transmitted, vector(packetBytes)"
vector 132  KIDSNw1.fhrouter2.ppp[0].ppp  rxPkOk:vector(packetBytes)  ETV
attr interpolationmode  none
attr source  rxPkOk
attr title  "packets received OK, vector(packetBytes)"
vector 136  KIDSNw1.fhrouter2.ppp[0].ppp  passedUpPk:vector(packetBytes)  ETV
attr interpolationmode  none
attr source  packetSentToUpper
attr title  "packets passed to higher layer, vector(packetBytes)"
vector 137  KIDSNw1.fhrouter2.ppp[1].queue  rcvdPk:vector(packetBytes)  ETV
attr interpolationmode  none
attr title  "received packets, vector(packetBytes)"
vector 139  KIDSNw1.fhrouter2.ppp[1].queue  queueingTime:vector  ETV
attr interpolationmode  none
attr title  "queueing time, vector"
vector 146  KIDSNw1.fhrouter2.ppp[1].ppp  rcvdPkFromHL:vector(packetBytes)  ETV
attr interpolationmode  none
attr source  packetReceivedFromUpper
attr title  "packets received from higher layer, vector(packetBytes)"
vector 142  KIDSNw1.fhrouter2.ppp[1].ppp  txPk:vector(packetBytes)  ETV
attr interpolationmode  none
attr source  packetSentToLower
attr title  "packets transmitted, vector(packetBytes)"
vector 236  KIDSNw1.bgrouter4.ppp[1].ppp  rxPkOk:vector(packetBytes)  ETV
attr interpolationmode  none
attr source  rxPkOk
attr title  "packets received OK, vector(packetBytes)"
vector 240  KIDSNw1.bgrouter4.ppp[1].ppp  passedUpPk:vector(packetBytes)  ETV
attr interpolationmode  none
attr source  packetSentToUpper
attr title  "packets passed to higher layer, vector(packetBytes)"
vector 219  KIDSNw1.bgrouter4.ppp[0].queue  rcvdPk:vector(packetBytes)  ETV
attr interpolationmode  none
attr title  "received packets, vector(packetBytes)"
vector 221  KIDSNw1.bgrouter4.ppp[0].queue  queueingTime:vector  ETV
attr interpolationmode  none
attr title  "queueing time, vector"
vector 228  KIDSNw1.bgrouter4.ppp[0].ppp  rcvdPkFromHL:vector(packetBytes)  ETV
attr interpolationmode  none
attr source  packetReceivedFromUpper
attr title  "packets received from higher layer, vector(packetBytes)"
vector 224  KIDSNw1.bgrouter4.ppp[0].ppp  txPk:vector(packetBytes)  ETV
attr interpolationmode  none
attr source  packetSentToLower
attr title  "packets transmitted, vector(packetBytes)"
vector 209  KIDSNw1.bgrouter3.ppp[1].ppp  rxPkOk:vector(packetBytes)  ETV
attr interpolationmode  none
attr source  rxPkOk
attr title  "packets received OK, vector(packetBytes)"
vector 213  KIDSNw1.bgrouter3.ppp[1].ppp  passedUpPk:vector(packetBytes)  ETV
attr interpolationmode  none
attr source  packetSentToUpper
attr title  "packets passed to higher layer, vector(packetBytes)"
vector 192  KIDSNw1.bgrouter3.ppp[0].queue  rcvdPk:vector(packetBytes)  ETV
attr interpolationmode  none
attr title  "received packets, vector(packetBytes)"
vector 194  KIDSNw1.bgrouter3.ppp[0].queue  queueingTime:vector  ETV
attr interpolationmode  none
attr title  "queueing time, vector"
vector 201  KIDSNw1.bgrouter3.ppp[0].ppp  rcvdPkFromHL:vector(packetBytes)  ETV
attr interpolationmode  none
attr source  packetReceivedFromUpper
attr title  "packets received from higher layer, vector(packetBytes)"
vector 197  KIDSNw1.bgrouter3.ppp[0].ppp  txPk:vector(packetBytes)  ETV
attr interpolationmode  none
attr source  packetSentToLower
attr title  "packets transmitted, vector(packetBytes)"
vector 182  KIDSNw1.irouter.ppp[1].ppp  rxPkOk:vector(packetBytes)  ETV
attr interpolationmode  none
attr source  rxPkOk
attr title  "packets received OK, vector(packetBytes)"
vector 186  KIDSNw1.irouter.ppp[1].ppp  passedUpPk:vector(packetBytes)  ETV
attr interpolationmode  none
attr source  packetSentToUpper
attr title  "packets passed to higher layer, vector(packetBytes)"
vector 165  KIDSNw1.irouter.ppp[0].queue  rcvdPk:vector(packetBytes)  ETV
attr interpolationmode  none
attr title  "received packets, vector(packetBytes)"
vector 167  KIDSNw1.irouter.ppp[0].queue  queueingTime:vector  ETV
attr interpolationmode  none
attr title  "queueing time, vector"
vector 174  KIDSNw1.irouter.ppp[0].ppp  rcvdPkFromHL:vector(packetBytes)  ETV
attr interpolationmode  none
attr source  packetReceivedFromUpper
attr title  "packets received from higher layer, vector(packetBytes)"
vector 170  KIDSNw1.irouter.ppp[0].ppp  txPk:vector(packetBytes)  ETV
attr interpolationmode  none
attr source  packetSentToLower
attr title  "packets transmitted, vector(packetBytes)"
vector 105  KIDSNw1.fhrouter1.ppp[1].ppp  rxPkOk:vector(packetBytes)  ETV
attr interpolationmode  none
attr source  rxPkOk
attr title  "packets received OK, vector(packetBytes)"
vector 109  KIDSNw1.fhrouter1.ppp[1].ppp  passedUpPk:vector(packetBytes)  ETV
attr interpolationmode  none
attr source  packetSentToUpper
attr title  "packets passed to higher layer, vector(packetBytes)"
vector 110  KIDSNw1.fhrouter1.ppp[2].queue  rcvdPk:vector(packetBytes)  ETV
attr interpolationmode  none
attr title  "received packets, vector(packetBytes)"
vector 112  KIDSNw1.fhrouter1.ppp[2].queue  queueingTime:vector  ETV
attr interpolationmode  none
attr title  "queueing time, vector"
vector 119  KIDSNw1.fhrouter1.ppp[2].ppp  rcvdPkFromHL:vector(packetBytes)  ETV
attr interpolationmode  none
attr source  packetReceivedFromUpper
attr title  "packets received from higher layer, vector(packetBytes)"
vector 115  KIDSNw1.fhrouter1.ppp[2].ppp  txPk:vector(packetBytes)  ETV
attr interpolationmode  none
attr source  packetSentToLower
attr title  "packets transmitted, vector(packetBytes)"
vector 116  KIDSNw1.fhrouter1.ppp[2].ppp  rxPkOk:vector(packetBytes)  ETV
attr interpolationmode  none
attr source  rxPkOk
attr title  "packets received OK, vector(packetBytes)"
vector 120  KIDSNw1.fhrouter1.ppp[2].ppp  passedUpPk:vector(packetBytes)  ETV
attr interpolationmode  none
attr source  packetSentToUpper
attr title  "packets passed to higher layer, vector(packetBytes)"
vector 88  KIDSNw1.fhrouter1.ppp[0].queue  rcvdPk:vector(packetBytes)  ETV
attr interpolationmode  none
attr title  "received packets, vector(packetBytes)"
vector 90  KIDSNw1.fhrouter1.ppp[0].queue  queueingTime:vector  ETV
attr interpolationmode  none
attr title  "queueing time, vector"
vector 97  KIDSNw1.fhrouter1.ppp[0].ppp  rcvdPkFromHL:vector(packetBytes)  ETV
attr interpolationmode  none
attr source  packetReceivedFromUpper
attr title  "packets received from higher layer, vector(packetBytes)"
vector 93  KIDSNw1.fhrouter1.ppp[0].ppp  txPk:vector(packetBytes)  ETV
attr interpolationmode  none
attr source  packetSentToLower
attr title  "packets transmitted, vector(packetBytes)"
vector 171  KIDSNw1.irouter.ppp[0].ppp  rxPkOk:vector(packetBytes)  ETV
attr interpolationmode  none
attr source  rxPkOk
attr title  "packets received OK, vector(packetBytes)"
vector 175  KIDSNw1.irouter.ppp[0].ppp  passedUpPk:vector(packetBytes)  ETV
attr interpolationmode  none
attr source  packetSentToUpper
attr title  "packets passed to higher layer, vector(packetBytes)"
vector 176  KIDSNw1.irouter.ppp[1].queue  rcvdPk:vector(packetBytes)  ETV
attr interpolationmode  none
attr title  "received packets, vector(packetBytes)"
vector 178  KIDSNw1.irouter.ppp[1].queue  queueingTime:vector  ETV
attr interpolationmode  none
attr title  "queueing time, vector"
vector 185  KIDSNw1.irouter.ppp[1].ppp  rcvdPkFromHL:vector(packetBytes)  ETV
attr interpolationmode  none
attr source  packetReceivedFromUpper
attr title  "packets received from higher layer, vector(packetBytes)"
vector 181  KIDSNw1.irouter.ppp[1].ppp  txPk:vector(packetBytes)  ETV
attr interpolationmode  none
attr source  packetSentToLower
attr title  "packets transmitted, vector(packetBytes)"
vector 198  KIDSNw1.bgrouter3.ppp[0].ppp  rxPkOk:vector(packetBytes)  ETV
attr interpolationmode  none
attr source  rxPkOk
attr title  "packets received OK, vector(packetBytes)"
vector 202  KIDSNw1.bgrouter3.ppp[0].ppp  passedUpPk:vector(packetBytes)  ETV
attr interpolationmode  none
attr source  packetSentToUpper
attr title  "packets passed to higher layer, vector(packetBytes)"
vector 203  KIDSNw1.bgrouter3.ppp[1].queue  rcvdPk:vector(packetBytes)  ETV
attr interpolationmode  none
attr title  "received packets, vector(packetBytes)"
vector 205  KIDSNw1.bgrouter3.ppp[1].queue  queueingTime:vector  ETV
attr interpolationmode  none
attr title  "queueing time, vector"
vector 212  KIDSNw1.bgrouter3.ppp[1].ppp  rcvdPkFromHL:vector(packetBytes)  ETV
attr interpolationmode  none
attr source  packetReceivedFromUpper
attr title  "packets received from higher layer, vector(packetBytes)"
vector 208  KIDSNw1.bgrouter3.ppp[1].ppp  txPk:vector(packetBytes)  ETV
attr interpolationmode  none
attr source  packetSentToLower
attr title  "packets transmitted, vector(packetBytes)"
vector 225  KIDSNw1.bgrouter4.ppp[0].ppp  rxPkOk:vector(packetBytes)  ETV
attr interpolationmode  none
attr source  rxPkOk
attr title  "packets received OK, vector(packetBytes)"
vector 229  KIDSNw1.bgrouter4.ppp[0].ppp  passedUpPk:vector(packetBytes)  ETV
attr interpolationmode  none
attr source  packetSentToUpper
attr title  "packets passed to higher layer, vector(packetBytes)"
vector 230  KIDSNw1.bgrouter4.ppp[1].queue  rcvdPk:vector(packetBytes)  ETV
attr interpolationmode  none
attr title  "received packets, vector(packetBytes)"
vector 232  KIDSNw1.bgrouter4.ppp[1].queue  queueingTime:vector  ETV
attr interpolationmode  none
attr title  "queueing time, vector"
vector 239  KIDSNw1.bgrouter4.ppp[1].ppp  rcvdPkFromHL:vector(packetBytes)  ETV
attr interpolationmode  none
attr source  packetReceivedFromUpper
attr title  "packets received from higher layer, vector(packetBytes)"
vector 235  KIDSNw1.bgrouter4.ppp[1].ppp  txPk:vector(packetBytes)  ETV
attr interpolationmode  none
attr source  packetSentToLower
attr title  "packets transmitted, vector(packetBytes)"
vector 143  KIDSNw1.fhrouter2.ppp[1].ppp  rxPkOk:vector(packetBytes)  ETV
attr interpolationmode  none
attr source  rxPkOk
attr title  "packets received OK, vector(packetBytes)"
vector 147  KIDSNw1.fhrouter2.ppp[1].ppp  passedUpPk:vector(packetBytes)  ETV
attr interpolationmode  none
attr source  packetSentToUpper
attr title  "packets passed to higher layer, vector(packetBytes)"
vector 126  KIDSNw1.fhrouter2.ppp[0].queue  rcvdPk:vector(packetBytes)  ETV
attr interpolationmode  none
attr title  "received packets, vector(packetBytes)"
vector 128  KIDSNw1.fhrouter2.ppp[0].queue  queueingTime:vector  ETV
attr interpolationmode  none
attr title  "queueing time, vector"
vector 135  KIDSNw1.fhrouter2.ppp[0].ppp  rcvdPkFromHL:vector(packetBytes)  ETV
attr interpolationmode  none
attr source  packetReceivedFromUpper
attr title  "packets received from higher layer, vector(packetBytes)"
vector 131  KIDSNw1.fhrouter2.ppp[0].ppp  txPk:vector(packetBytes)  ETV
attr interpolationmode  none
attr source  packetSentToLower
attr title  "packets transmitted, vector(packetBytes)"
vector 54  KIDSNw1.host2.ppp[0].ppp  rxPkOk:vector(packetBytes)  ETV
attr interpolationmode  none
attr source  rxPkOk
attr title  "packets received OK, vector(packetBytes)"
vector 58  KIDSNw1.host2.ppp[0].ppp  passedUpPk:vector(packetBytes)  ETV
attr interpolationmode  none
attr source  packetSentToUpper
attr title  "packets passed to higher layer, vector(packetBytes)"
vector 39  KIDSNw1.host2.udp  rcvdPk:vector(packetBytes)  ETV
attr interpolationmode  none
attr source  rcvdPk
attr title  "packets received, vector(packetBytes)"
vector 40  KIDSNw1.host2.udp  passedUpPk:vector(count)  ETV
attr interpolationmode  none
attr title  "packets passed up, vector(count)"
vector 35  KIDSNw1.host2.udpApp[0]  rcvdPk:vector(packetBytes)  ETV
attr interpolationmode  none
attr source  rcvdPk
attr title  "packets received, vector(packetBytes)"
vector 37  KIDSNw1.host2.udpApp[0]  rcvdPkLifetime:vector  ETV
attr interpolationmode  none
attr source  messageAge(rcvdPk)
attr title  "received packet lifetime, vector"
attr unit  s
vector 78  KIDSNw1.host3.ppp[0].ppp  rxPkOk:vector(packetBytes)  ETV
attr interpolationmode  none
attr source  rxPkOk
attr title  "packets received OK, vector(packetBytes)"
vector 82  KIDSNw1.host3.ppp[0].ppp  passedUpPk:vector(packetBytes)  ETV
attr interpolationmode  none
attr source  packetSentToUpper
attr title  "packets passed to higher layer, vector(packetBytes)"
vector 63  KIDSNw1.host3.udp  rcvdPk:vector(packetBytes)  ETV
attr interpolationmode  none
attr source  rcvdPk
attr title  "packets received, vector(packetBytes)"
vector 64  KIDSNw1.host3.udp  passedUpPk:vector(count)  ETV
attr interpolationmode  none
attr title  "packets passed up, vector(count)"
vector 59  KIDSNw1.host3.udpApp[0]  rcvdPk:vector(packetBytes)  ETV
attr interpolationmode  none
attr source  rcvdPk
attr title  "packets received, vector(packetBytes)"
vector 61  KIDSNw1.host3.udpApp[0]  rcvdPkLifetime:vector  ETV
attr interpolationmode  none
attr source  messageAge(rcvdPk)
attr title  "received packet lifetime, vector"
attr unit  s
vector 30  KIDSNw1.host1.ppp[0].ppp  rxPkOk:vector(packetBytes)  ETV
attr interpolationmode  none
attr source  rxPkOk
attr title  "packets received OK, vector(packetBytes)"
vector 34  KIDSNw1.host1.ppp[0].ppp  passedUpPk:vector(packetBytes)  ETV
attr interpolationmode  none
attr source  packetSentToUpper
attr title  "packets passed to higher layer, vector(packetBytes)"
vector 15  KIDSNw1.host1.udp  rcvdPk:vector(packetBytes)  ETV
attr interpolationmode  none
attr source  rcvdPk
attr title  "packets received, vector(packetBytes)"
vector 16  KIDSNw1.host1.udp  passedUpPk:vector(count)  ETV
attr interpolationmode  none
attr title  "packets passed up, vector(count)"
vector 11  KIDSNw1.host1.udpApp[0]  rcvdPk:vector(packetBytes)  ETV
attr interpolationmode  none
attr source  rcvdPk
attr title  "packets received, vector(packetBytes)"
vector 13  KIDSNw1.host1.udpApp[0]  rcvdPkLifetime:vector  ETV
attr interpolationmode  none
attr source  messageAge(rcvdPk)
attr title  "received packet lifetime, vector"
attr unit  s
11	153	0.002447197672	1250
11	278	0.202447197672	1250
11	403	0.402447197672	1250
11	528	0.602447197672	1250
11	653	0.802447197672	1250
12	20	0	1250
12	154	0.2	1250
12	279	0.4	1250
12	404	0.6	1250
12	529	0.8	1250
12	654	1	1250
13	153	0.002447197672	0.002447197672
13	278	0.202447197672	0.002447197672
13	403	0.402447197672	0.002447197672
13	528	0.602447197672	0.002447197672
13	653	0.802447197672	0.002447197672
14	33	0	1258
14	160	0.2	1258
14	285	0.4	1258
14	410	0.6	1258
14	535	0.8	1258
14	660	1	1258
15	151	0.002447197672	1258
15	276	0.202447197672	1258
15	401	0.402447197672	1258
15	526	0.602447197672	1258
15	651	0.802447197672	1258
16	151	0.002447197672	1
16	276	0.202447197672	2
16	401	0.402447197672	3
16	526	0.602447197672	4
16	651	0.802447197672	5
24	47	0	1278
24	172	0.2	1278
24	297	0.4	1278
24	422	0.6	1278
24	547	0.8	1278
24	672	1	1278
26	47	0	0
26	172	0.2	0
26	297	0.4	0
26	422	0.6	0
26	547	0.8	0
26	672	1	0
27	0	0	0
28	0	0	0
28	50	0	1
28	53	0.001028	0
28	175	0.2	1
28	178	0.201028	0
28	300	0.4	1
28	303	0.401028	0
28	425	0.6	1
28	428	0.601028	0
28	550	0.8	1
28	553	0.801028	0
28	675	1	1
28	678	1.001028	0
29	50	0	1285
29	175	0.2	1285
29	300	0.4	1285
29	425	0.6	1285
29	550	0.8	1285
29	675	1	1285
30	147	0.002447197672	1285
30	272	0.202447197672	1285
30	397	0.402447197672	1285
30	522	0.602447197672	1285
30	647	0.802447197672	1285
33	50	0	1278
33	175	0.2	1278
33	300	0.4	1278
33	425	0.6	1278
33	550	0.8	1278
33	675	1	1278
34	147	0.002447197672	1278
34	272	0.202447197672	1278
34	397	0.402447197672	1278
34	522	0.602447197672	1278
34	647	0.802447197672	1278
35	139	0.002339344826	1250
35	264	0.202339344826	1250
35	389	0.402339344826	1250
35	514	0.602339344826	1250
35	639	0.802339344826	1250
36	21	0	1250
36	155	0.2	1250
36	280	0.4	1250
36	405	0.6	1250
36	530	0.8	1250
36	655	1	1250
37	139	0.002339344826	0.002339344826
37	264	0.202339344826	0.002339344826
37	389	0.402339344826	0.002339344826
37	514	0.602339344826	0.002339344826
37	639	0.802339344826	0.002339344826
38	35	0	1258
38	161	0.2	1258
38	286	0.4	1258
38	411	0.6	1258
38	536	0.8	1258
38	661	1	1258
39	137	0.002339344826	1258
39	262	0.202339344826	1258
39	387	0.402339344826	1258
39	512	0.602339344826	1258
39	637	0.802339344826	1258
40	137	0.002339344826	1
40	262	0.202339344826	2
40	387	0.402339344826	3
40	512	0.602339344826	4
40	637	0.802339344826	5
48	48	0	1278
48	173	0.2	1278
48	298	0.4	1278
48	423	0.6	1278
48	548	0.8	1278
48	673	1	1278
50	48	0	0
50	173	0.2	0
50	298	0.4	0
50	423	0.6	0
50	548	0.8	0
50	673	1	0
51	0	0	0
52	0	0	0
52	51	0	1
52	54	0.001028	0
52	176	0.2	1
52	179	0.201028	0
52	301	0.4	1
52	304	0.401028	0
52	426	0.6	1
52	429	0.601028	0
52	551	0.8	1
52	554	0.801028	0
52	676	1	1
52	679	1.001028	0
53	51	0	1285
53	176	0.2	1285
53	301	0.4	1285
53	426	0.6	1285
53	551	0.8	1285
53	676	1	1285
54	133	0.002339344826	1285
54	258	0.202339344826	1285
54	383	0.402339344826	1285
54	508	0.602339344826	1285
54	633	0.802339344826	1285
57	51	0	1278
57	176	0.2	1278
57	301	0.4	1278
57	426	0.6	1278
57	551	0.8	1278
57	676	1	1278
58	133	0.002339344826	1278
58	258	0.202339344826	1278
58	383	0.402339344826	1278
58	508	0.602339344826	1278
58	633	0.802339344826	1278
59	146	0.002428981228	1250
59	271	0.202428981228	1250
59	396	0.402428981228	1250
59	521	0.602428981228	1250
59	646	0.802428981228	1250
60	22	0	1250
60	156	0.2	1250
60	281	0.4	1250
60	406	0.6	1250
60	531	0.8	1250
60	656	1	1250
61	146	0.002428981228	0.002428981228
61	271	0.202428981228	0.002428981228
61	396	0.402428981228	0.002428981228
61	521	0.602428981228	0.002428981228
61	646	0.802428981228	0.002428981228
62	37	0	1258
62	162	0.2	1258
62	287	0.4	1258
62	412	0.6	1258
62	537	0.8	1258
62	662	1	1258
63	144	0.002428981228	1258
63	269	0.202428981228	1258
63	394	0.402428981228	1258
63	519	0.602428981228	1258
63	644	0.802428981228	1258
64	144	0.002428981228	1
64	269	0.202428981228	2
64	394	0.402428981228	3
64	519	0.602428981228	4
64	644	0.802428981228	5
72	49	0	1278
72	174	0.2	1278
72	299	0.4	1278
72	424	0.6	1278
72	549	0.8	1278
72	674	1	1278
74	49	0	0
74	174	0.2	0
74	299	0.4	0
74	424	0.6	0
74	549	0.8	0
74	674	1	0
75	0	0	0
76	0	0	0
76	52	0	1
76	55	0.001028	0
76	177	0.2	1
76	180	0.201028	0
76	302	0.4	1
76	305	0.401028	0
76	427	0.6	1
76	430	0.601028	0
76	552	0.8	1
76	555	0.801028	0
76	677	1	1
76	680	1.001028	0
77	52	0	1285
77	177	0.2	1285
77	302	0.4	1285
77	427	0.6	1285
77	552	0.8	1285
77	677	1	1285
78	140	0.002428981228	1285
78	265	0.202428981228	1285
78	390	0.402428981228	1285
78	515	0.602428981228	1285
78	640	0.802428981228	1285
81	52	0	1278
81	177	0.2	1278
81	302	0.4	1278
81	427	0.6	1278
81	552	0.8	1278
81	677	1	1278
82	140	0.002428981228	1278
82	265	0.202428981228	1278
82	390	0.402428981228	1278
82	515	0.602428981228	1278
82	640	0.802428981228	1278
88	100	0.001224958633	1278
88	225	0.201224958633	1278
88	350	0.401224958633	1278
88	475	0.601224958633	1278
88	600	0.801224958633	1278
90	100	0.001224958633	0
90	225	0.201224958633	0
90	350	0.401224958633	0
90	475	0.601224958633	0
90	600	0.801224958633	0
91	0	0	0
92	0	0	0
92	101	0.001224958633	1
92	131	0.002252958633	0
92	226	0.201224958633	1
92	256	0.202252958633	0
92	351	0.401224958633	1
92	381	0.402252958633	0
92	476	0.601224958633	1
92	506	0.602252958633	0
92	601	0.801224958633	1
92	631	0.802252958633	0
93	101	0.001224958633	1285
93	226	0.201224958633	1285
93	351	0.401224958633	1285
93	476	0.601224958633	1285
93	601	0.801224958633	1285
94	56	0.001125350491	1285
94	181	0.201125350491	1285
94	306	0.401125350491	1285
94	431	0.601125350491	1285
94	556	0.801125350491	1285
94	681	1.001125350491	1285
97	101	0.001224958633	1278
97	226	0.201224958633	1278
97	351	0.401224958633	1278
97	476	0.601224958633	1278
97	601	0.801224958633	1278
98	56	0.001125350491	1278
98	181	0.201125350491	1278
98	306	0.401125350491	1278
98	431	0.601125350491	1278
98	556	0.801125350491	1278
98	681	1.001125350491	1278
99	60	0.001125350491	1278
99	185	0.201125350491	1278
99	310	0.401125350491	1278
99	435	0.601125350491	1278
99	560	0.801125350491	1278
99	685	1.001125350491	1278
101	60	0.001125350491	0
101	185	0.201125350491	0
101	310	0.401125350491	0
101	435	0.601125350491	0
101	560	0.801125350491	0
101	685	1.001125350491	0
102	0	0	0
103	0	0	0
103	61	0.001125350491	1
103	130	0.002153350491	0
103	186	0.201125350491	1
103	255	0.202153350491	0
103	311	0.401125350491	1
103	380	0.402153350491	0
103	436	0.601125350491	1
103	505	0.602153350491	0
103	561	0.801125350491	1
103	630	0.802153350491	0
103	686	1.001125350491	1
104	61	0.001125350491	1285
104	186	0.201125350491	1285
104	311	0.401125350491	1285
104	436	0.601125350491	1285
104	561	0.801125350491	1285
104	686	1.001125350491	1285
105	89	0.001220628533	1285
105	214	0.201220628533	1285
105	339	0.401220628533	1285
105	464	0.601220628533	1285
105	589	0.801220628533	1285
108	61	0.001125350491	1278
108	186	0.201125350491	1278
108	311	0.401125350491	1278
108	436	0.601125350491	1278
108	561	0.801125350491	1278
108	686	1.001125350491	1278
109	89	0.001220628533	1278
109	214	0.201220628533	1278
109	339	0.401220628533	1278
109	464	0.601220628533	1278
109	589	0.801220628533	1278
110	93	0.001220628533	1278
110	218	0.201220628533	1278
110	343	0.401220628533	1278
110	468	0.601220628533	1278
110	593	0.801220628533	1278
112	93	0.001220628533	0
112	218	0.201220628533	0
112	343	0.401220628533	0
112	468	0.601220628533	0
112	593	0.801220628533	0
113	0	0	0
114	0	0	0
114	94	0.001220628533	1
114	102	0.001240706658	0
114	219	0.201220628533	1
114	227	0.201240706658	0
114	344	0.401220628533	1
114	352	0.401240706658	0
114	469	0.601220628533	1
114	477	0.601240706658	0
114	594	0.801220628533	1
114	602	0.801240706658	0
115	94	0.001220628533	1285
115	219	0.201220628533	1285
115	344	0.401220628533	1285
115	469	0.601220628533	1285
115	594	0.801220628533	1285
116	96	0.001224958633	1285
116	221	0.201224958633	1285
116	346	0.401224958633	1285
116	471	0.601224958633	1285
116	596	0.801224958633	1285
119	94	0.001220628533	1278
119	219	0.201220628533	1278
119	344	0.401220628533	1278
119	469	0.601220628533	1278
119	594	0.801220628533	1278
120	96	0.001224958633	1278