file 39214 1430665829                                           
version 2
run seapp-attacks-0-20150503-17:08:53-2562
attr configname seapp-attacks
attr datetime 20150503-17:08:53
attr experiment seapp-attacks
attr inifile omnetpp.ini
attr iterationvars ""
attr iterationvars2 $repetition=0
attr measurement ""
attr network KIDSNw1
attr processid 2562
attr repetition 0
attr replication #0
attr resultdir results
attr runnumber 0
attr seedset 0

vector 27  KIDSNw1.host1.ppp[0].queue  queueLength:vector  ETV
attr interpolationmode  sample-hold
attr title  "queue length, vector"
vector 28  KIDSNw1.host1.ppp[0].ppp  txState:vector  ETV
attr interpolationmode  sample-hold
attr title  "tx state, vector"
vector 51  KIDSNw1.host2.ppp[0].queue  queueLength:vector  ETV
attr interpolationmode  sample-hold
attr title  "queue length, vector"
vector 52  KIDSNw1.host2.ppp[0].ppp  txState:vector  ETV
attr interpolationmode  sample-hold
attr title  "tx state, vector"
vector 75  KIDSNw1.host3.ppp[0].queue  queueLength:vector  ETV
attr interpolationmode  sample-hold
attr title  "queue length, vector"
vector 76  KIDSNw1.host3.ppp[0].ppp  txState:vector  ETV
attr interpolationmode  sample-hold
attr title  "tx state, vector"
vector 91  KIDSNw1.fhrouter1.ppp[0].queue  queueLength:vector  ETV
attr interpolationmode  sample-hold
attr title  "queue length, vector"
vector 92  KIDSNw1.fhrouter1.ppp[0].ppp  txState:vector  ETV
attr interpolationmode  sample-hold
attr title  "tx state, vector"
vector 102  KIDSNw1.fhrouter1.ppp[1].queue  queueLength:vector  ETV
attr interpolationmode  sample-hold
attr title  "queue length, vector"
vector 103  KIDSNw1.fhrouter1.ppp[1].ppp  txState:vector  ETV
attr interpolationmode  sample-hold
attr title  "tx state, vector"
vector 113  KIDSNw1.fhrouter1.ppp[2].queue  queueLength:vector  ETV
attr interpolationmode  sample-hold
attr title  "queue length, vector"
vector 114  KIDSNw1.fhrouter1.ppp[2].ppp  txState:vector  ETV
attr interpolationmode  sample-hold
attr title  "tx state, vector"
vector 129  KIDSNw1.fhrouter2.ppp[0].queue  queueLength:vector  ETV
attr interpolationmode  sample-hold
attr title  "queue length, vector"
vector 130  KIDSNw1.fhrouter2.ppp[0].ppp  txState:vector  ETV
attr interpolationmode  sample-hold
attr title  "tx state, vector"
vector 140  KIDSNw1.fhrouter2.ppp[1].queue  queueLength:vector  ETV
attr interpolationmode  sample-hold
attr title  "queue length, vector"
vector 141  KIDSNw1.fhrouter2.ppp[1].ppp  txState:vector  ETV
attr interpolationmode  sample-hold
attr title  "tx state, vector"
vector 168  KIDSNw1.irouter.ppp[0].queue  queueLength:vector  ETV
attr interpolationmode  sample-hold
attr title  "queue length, vector"
vector 169  KIDSNw1.irouter.ppp[0].ppp  txState:vector  ETV
attr interpolationmode  sample-hold
attr title  "tx state, vector"
vector 179  KIDSNw1.irouter.ppp[1].queue  queueLength:vector  ETV
attr interpolationmode  sample-hold
attr title  "queue length, vector"
vector 180  KIDSNw1.irouter.ppp[1].ppp  txState:vector  ETV
attr interpolationmode  sample-hold
attr title  "tx state, vector"
vector 195  KIDSNw1.bgrouter3.ppp[0].queue  queueLength:vector  ETV
attr interpolationmode  sample-hold
attr title  "queue length, vector"
vector 196  KIDSNw1.bgrouter3.ppp[0].ppp  txState:vector  ETV
attr interpolationmode  sample-hold
attr title  "tx state, vector"
vector 206  KIDSNw1.bgrouter3.ppp[1].queue  queueLength:vector  ETV
attr interpolationmode  sample-hold
attr title  "queue length, vector"
vector 207  KIDSNw1.bgrouter3.ppp[1].ppp  txState:vector  ETV
attr interpolationmode  sample-hold
attr title  "tx state, vector"
vector 222  KIDSNw1.bgrouter4.ppp[0].queue  queueLength:vector  ETV
attr interpolationmode  sample-hold
attr title  "queue length, vector"
vector 223  KIDSNw1.bgrouter4.ppp[0].ppp  txState:vector  ETV
attr interpolationmode  sample-hold
attr title  "tx state, vector"
vector 233  KIDSNw1.bgrouter4.ppp[1].queue  queueLength:vector  ETV
attr interpolationmode  sample-hold
attr title  "queue length, vector"
vector 234  KIDSNw1.bgrouter4.ppp[1].ppp  txState:vector  ETV
attr interpolationmode  sample-hold
attr title  "tx state, vector"
vector 12  KIDSNw1.host1.udpApp[0]  sentPk:vector(packetBytes)  ETV
attr interpolationmode  none
attr source  sentPk
attr title  "packets sent, vector(packetBytes)"
vector 36  KIDSNw1.host2.udpApp[0]  sentPk:vector(packetBytes)  ETV
attr interpolationmode  none
attr source  sentPk
attr title  "packets sent, vector(packetBytes)"
vector 60  KIDSNw1.host3.udpApp[0]  sentPk:vector(packetBytes)  ETV
attr interpolationmode  none
attr source  sentPk
attr title  "packets sent, vector(packetBytes)"
vector 14  KIDSNw1.host1.udp  sentPk:vector(packetBytes)  ETV
attr interpolationmode  none
attr source  sentPk
attr title  "packets sent, vector(packetBytes)"
vector 38  KIDSNw1.host2.udp  sentPk:vector(packetBytes)  ETV
attr interpolationmode  none
attr source  sentPk
attr title  "packets sent, vector(packetBytes)"
vector 62  KIDSNw1.host3.udp  sentPk:vector(packetBytes)  ETV
attr interpolationmode  none
attr source  sentPk
attr title  "packets sent, vector(packetBytes)"
vector 24  KIDSNw1.host1.ppp[0].queue  rcvdPk:vector(packetBytes)  ETV
attr interpolationmode  none
attr title  "received packets, vector(packetBytes)"
vector 26  KIDSNw1.host1.ppp[0].queue  queueingTime:vector  ETV
attr interpolationmode  none
attr title  "queueing time, vector"
vector 48  KIDSNw1.host2.ppp[0].queue  rcvdPk:vector(packetBytes)  ETV
attr interpolationmode  none
attr title  "received packets, vector(packetBytes)"
vector 50  KIDSNw1.host2.ppp[0].queue  queueingTime:vector  ETV
attr interpolationmode  none
attr title  "queueing time, vector"
vector 72  KIDSNw1.host3.ppp[0].queue  rcvdPk:vector(packetBytes)  ETV
attr interpolationmode  none
attr title  "received packets, vector(packetBytes)"
vector 74  KIDSNw1.host3.ppp[0].queue  queueingTime:vector  ETV
attr interpolationmode  none
attr title  "queueing time, vector"
vector 33  KIDSNw1.host1.ppp[0].ppp  rcvdPkFromHL:vector(packetBytes)  ETV
attr interpolationmode  none
attr source  packetReceivedFromUpper
attr title  "packets received from higher layer, vector(packetBytes)"
vector 29  KIDSNw1.host1.ppp[0].ppp  txPk:vector(packetBytes)  ETV
attr interpolationmode  none
attr source  packetSentToLower
attr title  "packets transmitted, vector(packetBytes)"
vector 57  KIDSNw1.host2.ppp[0].ppp  rcvdPkFromHL:vector(packetBytes)  ETV
attr interpolationmode  none
attr source  packetReceivedFromUpper
attr title  "packets received from higher layer, vector(packetBytes)"
vector 53  KIDSNw1.host2.ppp[0].ppp  txPk:vector(packetBytes)  ETV
attr interpolationmode  none
attr source  packetSentToLower
attr title  "packets transmitted, vector(packetBytes)"
vector 81  KIDSNw1.host3.ppp[0].ppp  rcvdPkFromHL:vector(packetBytes)  ETV
attr interpolationmode  none
attr source  packetReceivedFromUpper
attr title  "packets received from higher layer, vector(packetBytes)"
vector 77  KIDSNw1.host3.ppp[0].ppp  txPk:vector(packetBytes)  ETV
attr interpolationmode  none
attr source  packetSentToLower
attr title  "packets transmitted, vector(packetBytes)"
vector 94  KIDSNw1.fhrouter1.ppp[0].ppp  rxPkOk:vector(packetBytes)  ETV
attr interpolationmode  none
attr source  rxPkOk
attr title  "packets received OK, vector(packetBytes)"
vector 98  KIDSNw1.fhrouter1.ppp[0].ppp  passedUpPk:vector(packetBytes)  ETV
attr interpolationmode  none
attr source  packetSentToUpper
attr title  "packets passed to higher layer, vector(packetBytes)"
vector 99  KIDSNw1.fhrouter1.ppp[1].queue  rcvdPk:vector(packetBytes)  ETV
attr interpolationmode  none
attr title  "received packets, vector(packetBytes)"
vector 101  KIDSNw1.fhrouter1.ppp[1].queue  queueingTime:vector  ETV
attr interpolationmode  none
attr title  "queueing time, vector"
vector 108  KIDSNw1.fhrouter1.ppp[1].ppp  rcvdPkFromHL:vector(packetBytes)  ETV
attr interpolationmode  none
attr source  packetReceivedFromUpper
attr title  "packets received from higher layer, vector(packetBytes)"
vector 104  KIDSNw1.fhrouter1.ppp[1].ppp  txPk:vector(packetBytes)  ETV
attr interpolationmode  none
attr source  packetSentToLower
attr title  "packets transmitted, vector(packetBytes)"
vector 132  KIDSNw1.fhrouter2.ppp[0].ppp  rxPkOk:vector(packetBytes)  ETV
attr interpolationmode  none
attr source  rxPkOk
attr title  "packets received OK, vector(packetBytes)"
vector 136  KIDSNw1.fhrouter2.ppp[0].ppp  passedUpPk:vector(packetBytes)  ETV
attr interpolationmode  none
attr source  packetSentToUpper
attr title  "packets passed to higher layer, vector(packetBytes)"
vector 137  KIDSNw1.fhrouter2.ppp[1].queue  rcvdPk:vector(packetBytes)  ETV
attr interpolationmode  none
attr title  "received packets, vector(packetBytes)"
vector 139  KIDSNw1.fhrouter2.ppp[1].queue  queueingTime:vector  ETV
attr interpolationmode  none
attr title  "queueing time, vector"
vector 146  KIDSNw1.fhrouter2.ppp[1].ppp  rcvdPkFromHL:vector(packetBytes)  ETV
attr interpolationmode  none
attr source  packetReceivedFromUpper
attr title  "packets received from higher layer, vector(packetBytes)"
vector 142  KIDSNw1.fhrouter2.ppp[1].ppp  txPk:vector(packetBytes)  ETV
attr interpolationmode  none
attr source  packetSentToLower
attr title  "packets transmitted, vector(packetBytes)"
vector 236  KIDSNw1.bgrouter4.ppp[1].ppp  rxPkOk:vector(packetBytes)  ETV
attr interpolationmode  none
attr source  rxPkOk
attr title  "packets received OK, vector(packetBytes)"
vector 240  KIDSNw1.bgrouter4.ppp[1].ppp  passedUpPk:vector(packetBytes)  ETV
attr interpolationmode  none
attr source  packetSentToUpper
attr title  "packets passed to higher layer, vector(packetBytes)"
vector 219  KIDSNw1.bgrouter4.ppp[0].queue  rcvdPk:vector(packetBytes)  ETV
attr interpolationmode  none
attr title  "received packets, vector(packetBytes)"
vector 221  KIDSNw1.bgrouter4.ppp[0].queue  queueingTime:vector  ETV
attr interpolationmode  none
attr title  "queueing time, vector"
vector 228  KIDSNw1.bgrouter4.ppp[0].ppp  rcvdPkFromHL:vector(packetBytes)  ETV
attr interpolationmode  none
attr source  packetReceivedFromUpper
attr title  "packets received from higher layer, vector(packetBytes)"
vector 224  KIDSNw1.bgrouter4.ppp[0].ppp  txPk:vector(packetBytes)  ETV
attr interpolationmode  none
attr source  packetSentToLower
attr title  "packets transmitted, vector(packetBytes)"
vector 209  KIDSNw1.bgrouter3.ppp[1].ppp  rxPkOk:vector(packetBytes)  ETV
attr interpolationmode  none
attr source  rxPkOk
attr title  "packets received OK, vector(packetBytes)"
vector 213  KIDSNw1.bgrouter3.ppp[1].ppp  passedUpPk:vector(packetBytes)  ETV
attr interpolationmode  none
attr source  packetSentToUpper
attr title  "packets passed to higher layer, vector(packetBytes)"
vector 192  KIDSNw1.bgrouter3.ppp[0].queue  rcvdPk:vector(packetBytes)  ETV
attr interpolationmode  none
attr title  "received packets, vector(packetBytes)"
vector 194  KIDSNw1.bgrouter3.ppp[0].queue  queueingTime:vector  ETV
attr interpolationmode  none
attr title  "queueing time, vector"
vector 201  KIDSNw1.bgrouter3.ppp[0].ppp  rcvdPkFromHL:vector(packetBytes)  ETV
attr interpolationmode  none
attr source  packetReceivedFromUpper
attr title  "packets received from higher layer, vector(packetBytes)"
vector 197  KIDSNw1.bgrouter3.ppp[0].ppp  txPk:vector(packetBytes)  ETV
attr interpolationmode  none
attr source  packetSentToLower
attr title  "packets transmitted, vector(packetBytes)"
vector 182  KIDSNw1.irouter.ppp[1].ppp  rxPkOk:vector(packetBytes)  ETV
attr interpolationmode  none
attr source  rxPkOk
attr title  "packets received OK, vector(packetBytes)"
vector 186  KIDSNw1.irouter.ppp[1].ppp  passedUpPk:vector(packetBytes)  ETV
attr interpolationmode  none
attr source  packetSentToUpper
attr title  "packets passed to higher layer, vector(packetBytes)"
vector 165  KIDSNw1.irouter.ppp[0].queue  rcvdPk:vector(packetBytes)  ETV
attr interpolationmode  none
attr title  "received packets, vector(packetBytes)"
vector 167  KIDSNw1.irouter.ppp[0].queue  queueingTime:vector  ETV
attr interpolationmode  none
attr title  "queueing time, vector"
vector 174  KIDSNw1.irouter.ppp[0].ppp  rcvdPkFromHL:vector(packetBytes)  ETV
attr interpolationmode  none
attr source  packetReceivedFromUpper
attr title  "packets received from higher layer, vector(packetBytes)"
vector 170  KIDSNw1.irouter.ppp[0].ppp  txPk:vector(packetBytes)  ETV
attr interpolationmode  none
attr source  packetSentToLower
attr title  "packets transmitted, vector(packetBytes)"
vector 105  KIDSNw1.fhrouter1.ppp[1].ppp  rxPkOk:vector(packetBytes)  ETV
attr interpolationmode  none
attr source  rxPkOk
attr title  "packets received OK, vector(packetBytes)"
vector 109  KIDSNw1.fhrouter1.ppp[1].ppp  passedUpPk:vector(packetBytes)  ETV
attr interpolationmode  none
attr source  packetSentToUpper
attr title  "packets passed to higher layer, vector(packetBytes)"
vector 110  KIDSNw1.fhrouter1.ppp[2].queue  rcvdPk:vector(packetBytes)  ETV
attr interpolationmode  none
attr title  "received packets, vector(packetBytes)"
vector 112  KIDSNw1.fhrouter1.ppp[2].queue  queueingTime:vector  ETV
attr interpolationmode  none
attr title  "queueing time, vector"
vector 119  KIDSNw1.fhrouter1.ppp[2].ppp  rcvdPkFromHL:vector(packetBytes)  ETV
attr interpolationmode  none
attr source  packetReceivedFromUpper
attr title  "packets received from higher layer, vector(packetBytes)"
vector 115  KIDSNw1.fhrouter1.ppp[2].ppp  txPk:vector(packetBytes)  ETV
attr interpolationmode  none
attr source  packetSentToLower
attr title  "packets transmitted, vector(packetBytes)"
vector 116  KIDSNw1.fhrouter1.ppp[2].ppp  rxPkOk:vector(packetBytes)  ETV
attr interpolationmode  none
attr source  rxPkOk
attr title  "packets received OK, vector(packetBytes)"
vector 120  KIDSNw1.fhrouter1.ppp[2].ppp  passedUpPk:vector(packetBytes)  ETV
attr interpolationmode  none
attr source  packetSentToUpper
attr title  "packets passed to higher layer, vector(packetBytes)"
vector 88  KIDSNw1.fhrouter1.ppp[0].queue  rcvdPk:vector(packetBytes)  ETV
attr interpolationmode  none
attr title  "received packets, vector(packetBytes)"
vector 90  KIDSNw1.fhrouter1.ppp[0].queue  queueingTime:vector  ETV
attr interpolationmode  none
attr title  "queueing time, vector"
vector 97  KIDSNw1.fhrouter1.ppp[0].ppp  rcvdPkFromHL:vector(packetBytes)  ETV
attr interpolationmode  none
attr source  packetReceivedFromUpper
attr title  "packets received from higher layer, vector(packetBytes)"
vector 93  KIDSNw1.fhrouter1.ppp[0].ppp  txPk:vector(packetBytes)  ETV
attr interpolationmode  none
attr source  packetSentToLower
attr title  "packets transmitted, vector(packetBytes)"
vector 171  KIDSNw1.irouter.ppp[0].ppp  rxPkOk:vector(packetBytes)  ETV
attr interpolationmode  none
attr source  rxPkOk
attr title  "packets received OK, vector(packetBytes)"
vector 175  KIDSNw1.irouter.ppp[0].ppp  passedUpPk:vector(packetBytes)  ETV
attr interpolationmode  none
attr source  packetSentToUpper
attr title  "packets passed to higher layer, vector(packetBytes)"
vector 176  KIDSNw1.irouter.ppp[1].queue  rcvdPk:vector(packetBytes)  ETV
attr interpolationmode  none
attr title  "received packets, vector(packetBytes)"
vector 178  KIDSNw1.irouter.ppp[1].queue  queueingTime:vector  ETV
attr interpolationmode  none
attr title  "queueing time, vector"
vector 185  KIDSNw1.irouter.ppp[1].ppp  rcvdPkFromHL:vector(packetBytes)  ETV
attr interpolationmode  none
attr source  packetReceivedFromUpper
attr title  "packets received from higher layer, vector(packetBytes)"
vector 181  KIDSNw1.irouter.ppp[1].ppp  txPk:vector(packetBytes)  ETV
attr interpolationmode  none
attr source  packetSentToLower
attr title  "packets transmitted, vector(packetBytes)"
vector 198  KIDSNw1.bgrouter3.ppp[0].ppp  rxPkOk:vector(packetBytes)  ETV
attr interpolationmode  none
attr source  rxPkOk
attr title  "packets received OK, vector(packetBytes)"
vector 202  KIDSNw1.bgrouter3.ppp[0].ppp  passedUpPk:vector(packetBytes)  ETV
attr interpolationmode  none
attr source  packetSentToUpper
attr title  "packets passed to higher layer, vector(packetBytes)"
vector 203  KIDSNw1.bgrouter3.ppp[1].queue  rcvdPk:vector(packetBytes)  ETV
attr interpolationmode  none
attr title  "received packets, vector(packetBytes)"
vector 205  KIDSNw1.bgrouter3.ppp[1].queue  queueingTime:vector  ETV
attr interpolationmode  none
attr title  "queueing time, vector"
vector 212  KIDSNw1.bgrouter3.ppp[1].ppp  rcvdPkFromHL:vector(packetBytes)  ETV
attr interpolationmode  none
attr source  packetReceivedFromUpper
attr title  "packets received from higher layer, vector(packetBytes)"
vector 208  KIDSNw1.bgrouter3.ppp[1].ppp  txPk:vector(packetBytes)  ETV
attr interpolationmode  none
attr source  packetSentToLower
attr title  "packets transmitted, vector(packetBytes)"
vector 225  KIDSNw1.bgrouter4.ppp[0].ppp  rxPkOk:vector(packetBytes)  ETV
attr interpolationmode  none
attr source  rxPkOk
attr title  "packets received OK, vector(packetBytes)"
vector 229  KIDSNw1.bgrouter4.ppp[0].ppp  passedUpPk:vector(packetBytes)  ETV
attr interpolationmode  none
attr source  packetSentToUpper
attr title  "packets passed to higher layer, vector(packetBytes)"
vector 230  KIDSNw1.bgrouter4.ppp[1].queue  rcvdPk:vector(packetBytes)  ETV
attr interpolationmode  none
attr title  "received packets, vector(packetBytes)"
vector 232  KIDSNw1.bgrouter4.ppp[1].queue  queueingTime:vector  ETV
attr interpolationmode  none
attr title  "queueing time, vector"
vector 239  KIDSNw1.bgrouter4.ppp[1].ppp  rcvdPkFromHL:vector(packetBytes)  ETV
attr interpolationmode  none
attr source  packetReceivedFromUpper
attr title  "packets received from higher layer, vector(packetBytes)"
vector 235  KIDSNw1.bgrouter4.ppp[1].ppp  txPk:vector(packetBytes)  ETV
attr interpolationmode  none
attr source  packetSentToLower
attr title  "packets transmitted, vector(packetBytes)"
vector 143  KIDSNw1.fhrouter2.ppp[1].ppp  rxPkOk:vector(packetBytes)  ETV
attr interpolationmode  none
attr source  rxPkOk
attr title  "packets received OK, vector(packetBytes)"
vector 147  KIDSNw1.fhrouter2.ppp[1].ppp  passedUpPk:vector(packetBytes)  ETV
attr interpolationmode  none
attr source  packetSentToUpper
attr title  "packets passed to higher layer, vector(packetBytes)"
vector 126  KIDSNw1.fhrouter2.ppp[0].queue  rcvdPk:vector(packetBytes)  ETV
attr interpolationmode  none
attr title  "received packets, vector(packetBytes)"
vector 128  KIDSNw1.fhrouter2.ppp[0].queue  queueingTime:vector  ETV
attr interpolationmode  none
attr title  "queueing time, vector"
vector 135  KIDSNw1.fhrouter2.ppp[0].ppp  rcvdPkFromHL:vector(packetBytes)  ETV
attr interpolationmode  none
attr source  packetReceivedFromUpper
attr title  "packets received from higher layer, vector(packetBytes)"
vector 131  KIDSNw1.fhrouter2.ppp[0].ppp  txPk:vector(packetBytes)  ETV
attr interpolationmode  none
attr source  packetSentToLower
attr title  "packets transmitted, vector(packetBytes)"
vector 54  KIDSNw1.host2.ppp[0].ppp  rxPkOk:vector(packetBytes)  ETV
attr interpolationmode  none
attr source  rxPkOk
attr title  "packets received OK, vector(packetBytes)"
vector 58  KIDSNw1.host2.ppp[0].ppp  passedUpPk:vector(packetBytes)  ETV
attr interpolationmode  none
attr source  packetSentToUpper
attr title  "packets passed to higher layer, vector(packetBytes)"
vector 39  KIDSNw1.host2.udp  rcvdPk:vector(packetBytes)  ETV
attr interpolationmode  none
attr source  rcvdPk
attr title  "packets received, vector(packetBytes)"
vector 40  KIDSNw1.host2.udp  passedUpPk:vector(count)  ETV
attr interpolationmode  none
attr title  "packets passed up, vector(count)"
vector 35  KIDSNw1.host2.udpApp[0]  rcvdPk:vector(packetBytes)  ETV
attr interpolationmode  none
attr source  rcvdPk
attr title  "packets received, vector(packetBytes)"
vector 37  KIDSNw1.host2.udpApp[0]  rcvdPkLifetime:vector  ETV
attr interpolationmode  none
attr source  messageAge(rcvdPk)
attr title  "received packet lifetime, vector"
attr unit  s
vector 78  KIDSNw1.host3.ppp[0].ppp  rxPkOk:vector(packetBytes)  ETV
attr interpolationmode  none
attr source  rxPkOk
attr title  "packets received OK, vector(packetBytes)"
vector 82  KIDSNw1.host3.ppp[0].ppp  passedUpPk:vector(packetBytes)  ETV
attr interpolationmode  none
attr source  packetSentToUpper
attr title  "packets passed to higher layer, vector(packetBytes)"
vector 63  KIDSNw1.host3.udp  rcvdPk:vector(packetBytes)  ETV
attr interpolationmode  none
attr source  rcvdPk
attr title  "packets received, vector(packetBytes)"
vector 64  KIDSNw1.host3.udp  passedUpPk:vector(count)  ETV
attr interpolationmode  none
attr title  "packets passed up, vector(count)"
vector 59  KIDSNw1.host3.udpApp[0]  rcvdPk:vector(packetBytes)  ETV
attr interpolationmode  none
attr source  rcvdPk
attr title  "packets received, vector(packetBytes)"
vector 61  KIDSNw1.host3.udpApp[0]  rcvdPkLifetime:vector  ETV
attr interpolationmode  none
attr source  messageAge(rcvdPk)
attr title  "received packet lifetime, vector"
attr unit  s
vector 30  KIDSNw1.host1.ppp[0].ppp  rxPkOk:vector(packetBytes)  ETV
attr interpolationmode  none
attr source  rxPkOk
attr title  "packets received OK, vector(packetBytes)"
vector 34  KIDSNw1.host1.ppp[0].ppp  passedUpPk:vector(packetBytes)  ETV
attr interpolationmode  none
attr source  packetSentToUpper
attr title  "packets passed to higher layer, vector(packetBytes)"
vector 15  KIDSNw1.host1.udp  rcvdPk:vector(packetBytes)  ETV
attr interpolationmode  none
attr source  rcvdPk
attr title  "packets received, vector(packetBytes)"
vector 16  KIDSNw1.host1.udp  passedUpPk:vector(count)  ETV
attr interpolationmode  none
attr title  "packets passed up, vector(count)"
vector 11  KIDSNw1.host1.udpApp[0]  rcvdPk:vector(packetBytes)  ETV
attr interpolationmode  none
attr source  rcvdPk
attr title  "packets received, vector(packetBytes)"
vector 13  KIDSNw1.host1.udpApp[0]  rcvdPkLifetime:vector  ETV
attr interpolationmode  none
attr source  messageAge(rcvdPk)
attr title  "received packet lifetime, vector"
attr unit  s
11	21964 135 153 653 0.002447197672 0.802447197672 5 1250 1250 6250 7812500
12	22099 91 20 654 0 1 6 1250 1250 7500 9375000
13	22190 185 153 653 0.002447197672 0.802447197672 5 0.002447197672 0.002447197672 0.01223598836 2.9943882229211e-05
14	22375 91 33 660 0 1 6 1258 1258 7548 9495384
15	22466 135 151 651 0.002447197672 0.802447197672 5 1258 1258 6290 7912820
16	22601 120 151 651 0.002447197672 0.802447197672 5 1 5 15 55
24	22721 91 47 672 0 1 6 1278 1278 7668 9799704
26	22812 73 47 672 0 1 6 0 0 0 0
27	22885 9 0 0 0 0 1 0 0 0 0
28	22894 189 0 678 0 1.001028 13 0 1 6 6
29	23083 91 50 675 0 1 6 1285 1285 7710 9907350
30	23174 135 147 647 0.002447197672 0.802447197672 5 1285 1285 6425 8256125
33	23309 91 50 675 0 1 6 1278 1278 7668 9799704
34	23400 135 147 647 0.002447197672 0.802447197672 5 1278 1278 6390 8166420
35	23535 135 139 639 0.002339344826 0.802339344826 5 1250 1250 6250 7812500
36	23670 91 21 655 0 1 6 1250 1250 7500 9375000
37	23761 185 139 639 0.002339344826 0.802339344826 5 0.002339344826 0.002339344826 0.01169672413 2.7362671074665e-05
38	23946 91 35 661 0 1 6 1258 1258 7548 9495384
39	24037 135 137 637 0.002339344826 0.802339344826 5 1258 1258 6290 7912820
40	24172 120 137 637 0.002339344826 0.802339344826 5 1 5 15 55
48	24292 91 48 673 0 1 6 1278 1278 7668 9799704
50	24383 73 48 673 0 1 6 0 0 0 0
51	24456 9 0 0 0 0 1 0 0 0 0
52	24465 189 0 679 0 1.001028 13 0 1 6 6
53	24654 91 51 676 0 1 6 1285 1285 7710 9907350
54	24745 135 133 633 0.002339344826 0.802339344826 5 1285 1285 6425 8256125
57	24880 91 51 676 0 1 6 1278 1278 7668 9799704
58	24971 135 133 633 0.002339344826 0.802339344826 5 1278 1278 6390 8166420
59	25106 135 146 646 0.002428981228 0.802428981228 5 1250 1250 6250 7812500
60	25241 91 22 656 0 1 6 1250 1250 7500 9375000
61	25332 185 146 646 0.002428981228 0.802428981228 5 0.002428981228 0.002428981228 0.01214490614 2.9499749029882e-05
62	25517 91 37 662 0 1 6 1258 1258 7548 9495384
63	25608 135 144 644 0.002428981228 0.802428981228 5 1258 1258 6290 7912820
64	25743 120 144 644 0.002428981228 0.802428981228 5 1 5 15 55
72	25863 91 49 674 0 1 6 1278 1278 7668 9799704
74	25954 73 49 674 0 1 6 0 0 0 0
75	26027 9 0 0 0 0 1 0 0 0 0
76	26036 189 0 680 0 1.001028 13 0 1 6 6
77	26225 91 52 677 0 1 6 1285 1285 7710 9907350
78	26316 135 140 640 0.002428981228 0.802428981228 5 1285 1285 6425 8256125
81	26451 91 52 677 0 1 6 1278 1278 7668 9799704
82	26542 135 140 640 0.002428981228 0.802428981228 5 1278 1278 6390 8166420
88	26677 135 100 600 0.001224958633 0.801224958633 5 1278 1278 6390 8166420
90	26812 120 100 600 0.001224958633 0.801224958633 5 0 0 0 0
91	26932 9 0 0 0 0 1 0 0 0 0
92	26941 249 0 631 0 0.802252958633 11 0 1 5 5
93	27190 135 101 601 0.001224958633 0.801224958633 5 1285 1285 6425 8256125
94	27325 161 56 681 0.001125350491 1.001125350491 6 1285 1285 7710 9907350
97	27486 135 101 601 0.001224958633 0.801224958633 5 1278 1278 6390 8166420
98	27621 161 56 681 0.001125350491 1.001125350491 6 1278 1278 7668 9799704
99	27782 161 60 685 0.001125350491 1.001125350491 6 1278 1278 7668 9799704
101	27943 149 60 685 0.001125350491 1.001125350491 6 0 0 0 0
102	28092 10 0 0 0 0 1 0 0 0 0
103	28102 284 0 686 0 1.001125350491 12 0 1 6 6
104	28386 167 61 686 0.001125350491 1.001125350491 6 1285 1285 7710 9907350
105	28553 139 89 589 0.001220628533 0.801220628533 5 1285 1285 6425 8256125
108	28692 167 61 686 0.001125350491 1.001125350491 6 1278 1278 7668 9799704
109	28859 139 89 589 0.001220628533 0.801220628533 5 1278 1278 6390 8166420
110	28998 139 93 593 0.001220628533 0.801220628533 5 1278 1278 6390 8166420
112	29137 124 93 593 0.001220628533 0.801220628533 5 0 0 0 0
113	29261 10 0 0 0 0 1 0 0 0 0
114	29271 259 0 602 0 0.801240706658 11 0 1 5 5
115	29530 139 94 594 0.001220628533 0.801220628533 5 1285 1285 6425 8256125
116	29669 139 96 596 0.001224958633 0.801224958633 5 1285 1285 6425 8256125
119	29808 139 94 594 0.001220628533 0.801220628533 5 1278 1278 6390 8166420
120	29947 139 96 596 0.001224958633 0.801224958633 5 1278 1278 6390 8166420
126	30086 140 128 628 0.001304839114 0.801304839114 5 1278 1278 6390 8166420
128	30226 125 128 628 0.001304839114 0.801304839114 5 0 0 0 0
129	30351 10 0 0 0 0 1 0 0 0 0
130	30361 260 0 632 0 0.802332839114 11 0 1 5 5
131	30621 140 129 629 0.001304839114 0.801304839114 5 1285 1285 6425 8256125
132	30761 167 62 687 0.001140550237 1.001140550237 6 1285 1285 7710 9907350
135	30928 140 129 629 0.001304839114 0.801304839114 5 1278 1278 6390 8166420
136	31068 167 62 687 0.001140550237 1.001140550237 6 1278 1278 7668 9799704
137	31235 167 66 691 0.001140550237 1.001140550237 6 1278 1278 7668 9799704
139	31402 149 66 691 0.001140550237 1.001140550237 6 0 0 0 0
140	31551 10 0 0 0 0 1 0 0 0 0
141	31561 308 0 693 0 1.001160628362 13 0 1 6 6
142	31869 167 67 692 0.001140550237 1.001140550237 6 1285 1285 7710 9907350
143	32036 140 124 624 0.001304839114 0.801304839114 5 1285 1285 6425 8256125
146	32176 167 67 692 0.001140550237 1.001140550237 6 1278 1278 7668 9799704
147	32343 140 124 624 0.001304839114 0.801304839114 5 1278 1278 6390 8166420
165	32483 139 87 587 0.001203682876 0.801203682876 5 1278 1278 6390 8166420
167	32622 124 87 587 0.001203682876 0.801203682876 5 0 0 0 0
168	32746 10 0 0 0 0 1 0 0 0 0
169	32756 258 0 595 0 0.801223761001 11 0 1 5 5
170	33014 139 88 588 0.001203682876 0.801203682876 5 1285 1285 6425 8256125
171	33153 140 103 603 0.001241675089 0.801241675089 5 1285 1285 6425 8256125
174	33293 139 88 588 0.001203682876 0.801203682876 5 1278 1278 6390 8166420
175	33432 140 103 603 0.001241675089 0.801241675089 5 1278 1278 6390 8166420
176	33572 140 107 607 0.001241675089 0.801241675089 5 1278 1278 6390 8166420
178	33712 125 107 607 0.001241675089 0.801241675089 5 0 0 0 0
179	33837 10 0 0 0 0 1 0 0 0 0
180	33847 260 0 609 0 0.801261753214 11 0 1 5 5
181	34107 140 108 608 0.001241675089 0.801241675089 5 1285 1285 6425 8256125
182	34247 139 83 583 0.001203682876 0.801203682876 5 1285 1285 6425 8256125
185	34386 140 108 608 0.001241675089 0.801241675089 5 1278 1278 6390 8166420
186	34526 139 83 583 0.001203682876 0.801203682876 5 1278 1278 6390 8166420
192	34665 139 80 580 0.001182702131 0.801182702131 5 1278 1278 6390 8166420
194	34804 124 80 580 0.001182702131 0.801182702131 5 0 0 0 0
195	34928 10 0 0 0 0 1 0 0 0 0
196	34938 258 0 582 0 0.801202780256 11 0 1 5 5
197	35196 139 81 581 0.001182702131 0.801182702131 5 1285 1285 6425 8256125
198	35335 140 110 610 0.001262716683 0.801262716683 5 1285 1285 6425 8256125
201	35475 139 81 581 0.001182702131 0.801182702131 5 1278 1278 6390 8166420
202	35614 140 110 610 0.001262716683 0.801262716683 5 1278 1278 6390 8166420
203	35754 140 114 614 0.001262716683 0.801262716683 5 1278 1278 6390 8166420
205	35894 125 114 614 0.001262716683 0.801262716683 5 0 0 0 0
206	36019 10 0 0 0 0 1 0 0 0 0
207	36029 260 0 616 0 0.801282794808 11 0 1 5 5
208	36289 140 115 615 0.001262716683 0.801262716683 5 1285 1285 6425 8256125
209	36429 139 76 576 0.001182702131 0.801182702131 5 1285 1285 6425 8256125
212	36568 140 115 615 0.001262716683 0.801262716683 5 1278 1278 6390 8166420
213	36708 139 76 576 0.001182702131 0.801182702131 5 1278 1278 6390 8166420
219	36847 167 73 698 0.001161745729 1.001161745729 6 1278 1278 7668 9799704
221	37014 149 73 698 0.001161745729 1.001161745729 6 0 0 0 0
222	37163 10 0 0 0 0 1 0 0 0 0
223	37173 283 0 699 0 1.001161745729 12 0 1 6 6
224	37456 167 74 699 0.001161745729 1.001161745729 6 1285 1285 7710 9907350
225	37623 140 117 617 0.001283862255 0.801283862255 5 1285 1285 6425 8256125
228	37763 167 74 699 0.001161745729 1.001161745729 6 1278 1278 7668 9799704
229	37930 140 117 617 0.001283862255 0.801283862255 5 1278 1278 6390 8166420
230	38070 140 121 621 0.001283862255 0.801283862255 5 1278 1278 6390 8166420
232	38210 125 121 621 0.001283862255 0.801283862255 5 0 0 0 0
233	38335 10 0 0 0 0 1 0 0 0 0
234	38345 255 0 623 0 0.80130394038 11 0 1 5 5