version 2
run Disable-0-20170426-11:44:41-25333
attr configname Disable
attr datetime 20170426-11:44:41
attr experiment Disable
attr inifile omnetpp.ini
attr iterationvars ""
attr iterationvars2 $repetition=0
attr measurement ""
attr network Topo
attr processid 25333
attr repetition 0
attr replication #0
attr resultdir results
attr runnumber 0
attr seedset 0

vector 154  Topo.s1.tcp  tcpRcvQueueBytes  ETV
vector 141  Topo.s1.tcp  "advertised window"  ETV
vector 140  Topo.s1.tcp  "receive window"  ETV
vector 143  Topo.s1.tcp  "sent ack"  ETV
vector 83  Topo.s1.networkLayer.arp  sentReq:vector  ETV
attr title  "ARP request sent, vector"
vector 94  Topo.s1.eth[0].encap  encapPk:vector(packetBytes)  ETV
attr interpolationmode  none
attr source  encapPk
attr title  "packets encapsulated, vector(packetBytes)"
vector 90  Topo.s1.eth[0].mac  rxPkFromHL:vector(packetBytes)  ETV
attr interpolationmode  none
attr source  rxPkFromHL
attr title  "packet bytes from higher layer, vector(packetBytes)"
vector 104  Topo.controller.eth[0].mac  rxPkOk:vector(packetBytes)  ETV
attr interpolationmode  none
attr source  rxPkOk
attr title  "packets received OK, vector(packetBytes)"
vector 105  Topo.controller.eth[0].mac  passedUpPk:vector(packetBytes)  ETV
attr interpolationmode  none
attr source  packetSentToUpper
attr title  "packets passed to higher layer, vector(packetBytes)"
vector 85  Topo.s1.eth[0].mac  txPk:vector(packetBytes)  ETV
attr interpolationmode  none
attr source  txPk
attr title  "packets transmitted, vector(packetBytes)"
vector 113  Topo.controller.eth[0].encap  decapPk:vector(packetBytes)  ETV
attr interpolationmode  none
attr source  decapPk
attr title  "packets decapsulated, vector(packetBytes)"
vector 99  Topo.controller.networkLayer.arp  sentReply:vector  ETV
attr title  "ARP replies sent, vector"
vector 112  Topo.controller.eth[0].encap  encapPk:vector(packetBytes)  ETV
attr interpolationmode  none
attr source  encapPk
attr title  "packets encapsulated, vector(packetBytes)"
vector 108  Topo.controller.eth[0].mac  rxPkFromHL:vector(packetBytes)  ETV
attr interpolationmode  none
attr source  rxPkFromHL
attr title  "packet bytes from higher layer, vector(packetBytes)"
vector 86  Topo.s1.eth[0].mac  rxPkOk:vector(packetBytes)  ETV
attr interpolationmode  none
attr source  rxPkOk
attr title  "packets received OK, vector(packetBytes)"
vector 87  Topo.s1.eth[0].mac  passedUpPk:vector(packetBytes)  ETV
attr interpolationmode  none
attr source  packetSentToUpper
attr title  "packets passed to higher layer, vector(packetBytes)"
vector 103  Topo.controller.eth[0].mac  txPk:vector(packetBytes)  ETV
attr interpolationmode  none
attr source  txPk
attr title  "packets transmitted, vector(packetBytes)"
vector 95  Topo.s1.eth[0].encap  decapPk:vector(packetBytes)  ETV
attr interpolationmode  none
attr source  decapPk
attr title  "packets decapsulated, vector(packetBytes)"
vector 120  Topo.controller.tcp  "rcvd seq"  ETV
vector 121  Topo.controller.tcp  "rcvd ack"  ETV
vector 117  Topo.controller.tcp  "advertised window"  ETV
vector 115  Topo.controller.tcp  "send window"  ETV
vector 130  Topo.controller.tcp  tcpRcvQueueBytes  ETV
vector 116  Topo.controller.tcp  "receive window"  ETV
vector 119  Topo.controller.tcp  "sent ack"  ETV
vector 144  Topo.s1.tcp  "rcvd seq"  ETV
vector 145  Topo.s1.tcp  "rcvd ack"  ETV
vector 139  Topo.s1.tcp  "send window"  ETV
vector 122  Topo.controller.tcp  "unacked bytes"  ETV
vector 118  Topo.controller.tcp  "sent seq"  ETV
vector 147  Topo.s1.tcp  "rcvd dupAcks"  ETV
vector 142  Topo.s1.tcp  "sent seq"  ETV
vector 146  Topo.s1.tcp  "unacked bytes"  ETV
vector 134  Topo.controller.tcp  "measured RTT"  ETV
vector 135  Topo.controller.tcp  "smoothed RTT"  ETV
vector 136  Topo.controller.tcp  RTTVAR  ETV
vector 137  Topo.controller.tcp  RTO  ETV
vector 132  Topo.controller.tcp  cwnd  ETV
vector 123  Topo.controller.tcp  "rcvd dupAcks"  ETV
vector 158  Topo.s1.tcp  "measured RTT"  ETV
vector 159  Topo.s1.tcp  "smoothed RTT"  ETV
vector 160  Topo.s1.tcp  RTTVAR  ETV
vector 161  Topo.s1.tcp  RTO  ETV
vector 156  Topo.s1.tcp  cwnd  ETV
vector 1  Topo.client.udpApp[0]  sentPk:vector(packetBytes)  ETV
attr interpolationmode  none
attr source  sentPk
attr title  "packets sent, vector(packetBytes)"
vector 3  Topo.client.udp  sentPk:vector(packetBytes)  ETV
attr interpolationmode  none
attr source  sentPk
attr title  "packets sent, vector(packetBytes)"
vector 4  Topo.client.udp  sentPk:vector(count)  ETV
attr interpolationmode  none
attr source  sentPk
attr title  "packets sent, vector(count)"
vector 12  Topo.client.networkLayer.arp  sentReq:vector  ETV
attr title  "ARP request sent, vector"
vector 26  Topo.client.eth[0].encap  encapPk:vector(packetBytes)  ETV
attr interpolationmode  none
attr source  encapPk
attr title  "packets encapsulated, vector(packetBytes)"
vector 22  Topo.client.eth[0].mac  rxPkFromHL:vector(packetBytes)  ETV
attr interpolationmode  none
attr source  rxPkFromHL
attr title  "packet bytes from higher layer, vector(packetBytes)"
vector 17  Topo.client.eth[0].mac  txPk:vector(packetBytes)  ETV
attr interpolationmode  none
attr source  txPk
attr title  "packets transmitted, vector(packetBytes)"
vector 59  Topo.s1.etherMAC[0]  rxPkOk:vector(packetBytes)  ETV
attr interpolationmode  none
attr source  rxPkOk
attr title  "packets received OK, vector(packetBytes)"
vector 60  Topo.s1.etherMAC[0]  passedUpPk:vector(packetBytes)  ETV
attr interpolationmode  none
attr source  packetSentToUpper
attr title  "packets passed to higher layer, vector(packetBytes)"
vector 81  Topo.s1.ofa_switch  myRtt:vector  ETV
attr interpolation  none
attr source  myRtt
attr title  "RTT for packet out direction, vector"
vector 74  Topo.s1.etherMAC[1]  rxPkFromHL:vector(packetBytes)  ETV
attr interpolationmode  none
attr source  rxPkFromHL
attr title  "packet bytes from higher layer, vector(packetBytes)"
vector 47  Topo.server.eth[0].mac  rxPkOk:vector(packetBytes)  ETV
attr interpolationmode  none
attr source  rxPkOk
attr title  "packets received OK, vector(packetBytes)"
vector 48  Topo.server.eth[0].mac  passedUpPk:vector(packetBytes)  ETV
attr interpolationmode  none
attr source  packetSentToUpper
attr title  "packets passed to higher layer, vector(packetBytes)"
vector 69  Topo.s1.etherMAC[1]  txPk:vector(packetBytes)  ETV
attr interpolationmode  none
attr source  txPk
attr title  "packets transmitted, vector(packetBytes)"
vector 56  Topo.server.eth[0].encap  decapPk:vector(packetBytes)  ETV
attr interpolationmode  none
attr source  decapPk
attr title  "packets decapsulated, vector(packetBytes)"
vector 42  Topo.server.networkLayer.arp  sentReply:vector  ETV
attr title  "ARP replies sent, vector"
vector 55  Topo.server.eth[0].encap  encapPk:vector(packetBytes)  ETV
attr interpolationmode  none
attr source  encapPk
attr title  "packets encapsulated, vector(packetBytes)"
vector 51  Topo.server.eth[0].mac  rxPkFromHL:vector(packetBytes)  ETV
attr interpolationmode  none
attr source  rxPkFromHL
attr title  "packet bytes from higher layer, vector(packetBytes)"
vector 46  Topo.server.eth[0].mac  txPk:vector(packetBytes)  ETV
attr interpolationmode  none
attr source  txPk
attr title  "packets transmitted, vector(packetBytes)"
vector 70  Topo.s1.etherMAC[1]  rxPkOk:vector(packetBytes)  ETV
attr interpolationmode  none
attr source  rxPkOk
attr title  "packets received OK, vector(packetBytes)"
vector 71  Topo.s1.etherMAC[1]  passedUpPk:vector(packetBytes)  ETV
attr interpolationmode  none
attr source  packetSentToUpper
attr title  "packets passed to higher layer, vector(packetBytes)"
vector 63  Topo.s1.etherMAC[0]  rxPkFromHL:vector(packetBytes)  ETV
attr interpolationmode  none
attr source  rxPkFromHL
attr title  "packet bytes from higher layer, vector(packetBytes)"
vector 18  Topo.client.eth[0].mac  rxPkOk:vector(packetBytes)  ETV
attr interpolationmode  none
attr source  rxPkOk
attr title  "packets received OK, vector(packetBytes)"
vector 19  Topo.client.eth[0].mac  passedUpPk:vector(packetBytes)  ETV
attr interpolationmode  none
attr source  packetSentToUpper
attr title  "packets passed to higher layer, vector(packetBytes)"
vector 58  Topo.s1.etherMAC[0]  txPk:vector(packetBytes)  ETV
attr interpolationmode  none
attr source  txPk
attr title  "packets transmitted, vector(packetBytes)"
vector 27  Topo.client.eth[0].encap  decapPk:vector(packetBytes)  ETV
attr interpolationmode  none
attr source  decapPk
attr title  "packets decapsulated, vector(packetBytes)"
vector 34  Topo.server.udp  rcvdPk:vector(packetBytes)  ETV
attr interpolationmode  none
attr source  rcvdPk
attr title  "packets received, vector(packetBytes)"
vector 39  Topo.server.udp  rcvdPkLifetime:vector  ETV
attr interpolationmode  none
attr source  messageAge(rcvdPk)
attr title  "received packet lifetime, vector"
attr unit  s
vector 38  Topo.server.udp  delay:vector  ETV
attr interpolationmode  none
attr source  delay
attr title  "delay, vector"
vector 35  Topo.server.udp  passedUpPk:vector(count)  ETV
attr interpolationmode  none
attr title  "packets passed up, vector(count)"
vector 29  Topo.server.udpApp[0]  rcvdPk:vector(packetBytes)  ETV
attr interpolationmode  none
attr source  rcvdPk
attr title  "packets received, vector(packetBytes)"
vector 30  Topo.server.udpApp[0]  rcvdPk:vector(count)  ETV
attr interpolationmode  none
attr source  rcvdPk
attr title  "packets received, vector(count)"
vector 31  Topo.server.udpApp[0]  rcvdAppPkt:vector  ETV
attr interpolationmode  none
attr source  rcvdAppPkt
attr title  "packets received during sec, vector"
42	237	0.200039199999	1
51	243	0.200039199999	64
47	227	0.200039199999	64
47	562	0.200555039992	1296
47	590	0.40020864	1296
47	618	0.60020864	1296
47	646	0.80020864	1296
47	674	1.00020864	1296
47	702	1.20020864	1296
47	730	1.40020864	1296
47	758	1.60020864	1296
47	786	1.80020864	1296
47	814	2.00020864	1296
47	842	2.20020864	1296
47	870	2.40020864	1296
47	898	2.60020864	1296
47	926	2.80020864	1296
47	954	3.00020864	1296
47	982	3.20020864	1296
47	1010	3.40020864	1296
47	1038	3.60020864	1296
47	1066	3.80020864	1296
47	1094	4.00020864	1296
47	1122	4.20020864	1296
47	1150	4.40020864	1296
47	1178	4.60020864	1296
47	1206	4.80020864	1296
47	1234	5.00020864	1296
47	1262	5.20020864	1296
47	1290	5.40020864	1296
47	1318	5.60020864	1296
47	1346	5.80020864	1296
47	1374	6.00020864	1296
47	1402	6.20020864	1296
47	1430	6.40020864	1296
47	1458	6.60020864	1296
47	1486	6.80020864	1296
47	1514	7.00020864	1296
47	1542	7.20020864	1296
47	1570	7.40020864	1296
47	1598	7.60020864	1296
47	1626	7.80020864	1296
47	1654	8.00020864	1296
47	1682	8.20020864	1296
47	1710	8.40020864	1296
47	1738	8.60020864	1296
47	1766	8.80020864	1296
47	1794	9.00020864	1296
47	1822	9.20020864	1296
47	1850	9.40020864	1296
47	1878	9.60020864	1296
47	1906	9.80020864	1296
47	1934	10.00020864	1296
47	1962	10.20020864	1296
47	1990	10.40020864	1296
47	2018	10.60020864	1296
47	2046	10.80020864	1296
47	2074	11.00020864	1296
47	2102	11.20020864	1296
47	2130	11.40020864	1296
47	2158	11.60020864	1296
47	2186	11.80020864	1296
47	2214	12.00020864	1296
47	2242	12.20020864	1296
47	2270	12.40020864	1296
47	2298	12.60020864	1296
47	2326	12.80020864	1296
47	2354	13.00020864	1296
47	2382	13.20020864	1296
47	2410	13.40020864	1296
47	2438	13.60020864	1296
47	2466	13.80020864	1296
47	2494	14.00020864	1296
47	2522	14.20020864	1296
47	2550	14.40020864	1296
47	2578	14.60020864	1296
47	2606	14.80020864	1296
47	2634	15.00020864	1296
47	2662	15.20020864	1296
47	2690	15.40020864	1296
47	2718	15.60020864	1296
47	2746	15.80020864	1296
47	2774	16.00020864	1296
47	2802	16.20020864	1296
47	2830	16.40020864	1296
47	2858	16.60020864	1296
47	2886	16.80020864	1296
47	2914	17.00020864	1296
47	2942	17.20020864	1296
47	2970	17.40020864	1296
47	2998	17.60020864	1296
47	3026	17.80020864	1296
47	3054	18.00020864	1296
47	3082	18.20020864	1296
47	3110	18.40020864	1296
47	3138	18.60020864	1296
47	3166	18.80020864	1296
47	3194	19.00020864	1296
47	3222	19.20020864	1296
47	3250	19.40020864	1296
47	3278	19.60020864	1296
47	3306	19.80020864	1296
46	247	0.200044959999	64
48	227	0.200039199999	64
48	562	0.200555039992	1296
48	590	0.40020864	1296
48	618	0.60020864	1296
48	646	0.80020864	1296
48	674	1.00020864	1296
48	702	1.20020864	1296
48	730	1.40020864	1296
48	758	1.60020864	1296
48	786	1.80020864	1296
48	814	2.00020864	1296
48	842	2.20020864	1296
48	870	2.40020864	1296
48	898	2.60020864	1296
48	926	2.80020864	1296
48	954	3.00020864	1296
48	982	3.20020864	1296
48	1010	3.40020864	1296
48	1038	3.60020864	1296
48	1066	3.80020864	1296
48	1094	4.00020864	1296
48	1122	4.20020864	1296
48	1150	4.40020864	1296
48	1178	4.60020864	1296
48	1206	4.80020864	1296
48	1234	5.00020864	1296
48	1262	5.20020864	1296
48	1290	5.40020864	1296
48	1318	5.60020864	1296
48	1346	5.80020864	1296
48	1374	6.00020864	1296
48	1402	6.20020864	1296
48	1430	6.40020864	1296
48	1458	6.60020864	1296
48	1486	6.80020864	1296
48	1514	7.00020864	1296
48	1542	7.20020864	1296
48	1570	7.40020864	1296
48	1598	7.60020864	1296
48	1626	7.80020864	1296
48	1654	8.00020864	1296
48	1682	8.20020864	1296
48	1710	8.40020864	1296
48	1738	8.60020864	1296
48	1766	8.80020864	1296
48	1794	9.00020864	1296
48	1822	9.20020864	1296
48	1850	9.40020864	1296
48	1878	9.60020864	1296
48	1906	9.80020864	1296
48	1934	10.00020864	1296
48	1962	10.20020864	1296
48	1990	10.40020864	1296
48	2018	10.60020864	1296
48	2046	10.80020864	1296
48	2074	11.00020864	1296
48	2102	11.20020864	1296
48	2130	11.40020864	1296
48	2158	11.60020864	1296
48	2186	11.80020864	1296
48	2214	12.00020864	1296
48	2242	12.20020864	1296
48	2270	12.40020864	1296
48	2298	12.60020864	1296
48	2326	12.80020864	1296
48	2354	13.00020864	1296
48	2382	13.20020864	1296
48	2410	13.40020864	1296
48	2438	13.60020864	1296
48	2466	13.80020864	1296
48	2494	14.00020864	1296
48	2522	14.20020864	1296
48	2550	14.40020864	1296
48	2578	14.60020864	1296
48	2606	14.80020864	1296
48	2634	15.00020864	1296
48	2662	15.20020864	1296
48	2690	15.40020864	1296
48	2718	15.60020864	1296
48	2746	15.80020864	1296
48	2774	16.00020864	1296
48	2802	16.20020864	1296
48	2830	16.40020864	1296
48	2858	16.60020864	1296
48	2886	16.80020864	1296
48	2914	17.00020864	1296
48	2942	17.20020864	1296
48	2970	17.40020864	1296
48	2998	17.60020864	1296
48	3026	17.80020864	1296
48	3054	18.00020864	1296
48	3082	18.20020864	1296
48	3110	18.40020864	1296
48	3138	18.60020864	1296
48	3166	18.80020864	1296
48	3194	19.00020864	1296
48	3222	19.20020864	1296
48	3250	19.40020864	1296
48	3278	19.60020864	1296
48	3306	19.80020864	1296
56	231	0.200039199999	28
56	564	0.200555039992	1278
56	592	0.40020864	1278
56	620	0.60020864	1278
56	648	0.80020864	1278
56	676	1.00020864	1278
56	704	1.20020864	1278
56	732	1.40020864	1278
56	760	1.60020864	1278
56	788	1.80020864	1278
56	816	2.00020864	1278
56	844	2.20020864	1278
56	872	2.40020864	1278
56	900	2.60020864	1278
56	928	2.80020864	1278
56	956	3.00020864	1278
56	984	3.20020864	1278
56	1012	3.40020864	1278
56	1040	3.60020864	1278
56	1068	3.80020864	1278
56	1096	4.00020864	1278
56	1124	4.20020864	1278
56	1152	4.40020864	1278
56	1180	4.60020864	1278
56	1208	4.80020864	1278
56	1236	5.00020864	1278
56	1264	5.20020864	1278
56	1292	5.40020864	1278
56	1320	5.60020864	1278
56	1348	5.80020864	1278
56	1376	6.00020864	1278
56	1404	6.20020864	1278
56	1432	6.40020864	1278
56	1460	6.60020864	1278
56	1488	6.80020864	1278
56	1516	7.00020864	1278
56	1544	7.20020864	1278
56	1572	7.40020864	1278
56	1600	7.60020864	1278
56	1628	7.80020864	1278
56	1656	8.00020864	1278
56	1684	8.20020864	1278
56	1712	8.40020864	1278
56	1740	8.60020864	1278
56	1768	8.80020864	1278
56	1796	9.00020864	1278
56	1824	9.20020864	1278
56	1852	9.40020864	1278
56	1880	9.60020864	1278
56	1908	9.80020864	1278
56	1936	10.00020864	1278
56	1964	10.20020864	1278
56	1992	10.40020864	1278
56	2020	10.60020864	1278
56	2048	10.80020864	1278
56	2076	11.00020864	1278
56	2104	11.20020864	1278
56	2132	11.40020864	1278
56	2160	11.60020864	1278
56	2188	11.80020864	1278
56	2216	12.00020864	1278
56	2244	12.20020864	1278
56	2272	12.40020864	1278
56	2300	12.60020864	1278
56	2328	12.80020864	1278
56	2356	13.00020864	1278
56	2384	13.20020864	1278
56	2412	13.40020864	1278
56	2440	13.60020864	1278
56	2468	13.80020864	1278
56	2496	14.00020864	1278
56	2524	14.20020864	1278
56	2552	14.40020864	1278
56	2580	14.60020864	1278
56	2608	14.80020864	1278
56	2636	15.00020864	1278
56	2664	15.20020864	1278
56	2692	15.40020864	1278
56	2720	15.60020864	1278
56	2748	15.80020864	1278
56	2776	16.00020864	1278
56	2804	16.20020864	1278
56	2832	16.40020864	1278
56	2860	16.60020864	1278
56	2888	16.80020864	1278
56	2916	17.00020864	1278
56	2944	17.20020864	1278
56	2972	17.40020864	1278
56	3000	17.60020864	1278
56	3028	17.80020864	1278
56	3056	18.00020864	1278
56	3084	18.20020864	1278
56	3112	18.40020864	1278
56	3140	18.60020864	1278
56	3168	18.80020864	1278
56	3196	19.00020864	1278
56	3224	19.20020864	1278
56	3252	19.40020864	1278
56	3280	19.60020864	1278
56	3308	19.80020864	1278
55	242	0.200039199999	28
31	682	1.00020864	5
31	822	2.00020864	5
31	962	3.00020864	5
31	1102	4.00020864	5
31	1242	5.00020864	5
31	1382	6.00020864	5
31	1522	7.00020864	5
31	1662	8.00020864	5
31	1802	9.00020864	5
31	1942	10.00020864	5
31	2082	11.00020864	5
31	2222	12.00020864	5
31	2362	13.00020864	5
31	2502	14.00020864	5
31	2642	15.00020864	5
31	2782	16.00020864	5
31	2922	17.00020864	5
31	3062	18.00020864	5
31	3202	19.00020864	5
30	570	0.200555039992	1
30	598	0.40020864	2
30	626	0.60020864	3
30	654	0.80020864	4
30	682	1.00020864	5
30	710	1.20020864	6
30	738	1.40020864	7
30	766	1.60020864	8
30	794	1.80020864	9
30	822	2.00020864	10
30	850	2.20020864	11
30	878	2.40020864	12
30	906	2.60020864	13
30	934	2.80020864	14
30	962	3.00020864	15
30	990	3.20020864	16
30	1018	3.40020864	17
30	1046	3.60020864	18
30	1074	3.80020864	19
30	1102	4.00020864	20
30	1130	4.20020864	21
30	1158	4.40020864	22
30	1186	4.60020864	23
30	1214	4.80020864	24
30	1242	5.00020864	25
30	1270	5.20020864	26
30	1298	5.40020864	27
30	1326	5.60020864	28
30	1354	5.80020864	29
30	1382	6.00020864	30
30	1410	6.20020864	31
30	1438	6.40020864	32
30	1466	6.60020864	33
30	1494	6.80020864	34
30	1522	7.00020864	35
30	1550	7.20020864	36
30	1578	7.40020864	37
30	1606	7.60020864	38
30	1634	7.80020864	39
30	1662	8.00020864	40
30	1690	8.20020864	41
30	1718	8.40020864	42
30	1746	8.60020864	43
30	1774	8.80020864	44
30	1802	9.00020864	45
30	1830	9.20020864	46
30	1858	9.40020864	47
30	1886	9.60020864	48
30	1914	9.80020864	49
30	1942	10.00020864	50
30	1970	10.20020864	51
30	1998	10.40020864	52
30	2026	10.60020864	53
30	2054	10.80020864	54
30	2082	11.00020864	55
30	2110	11.20020864	56
30	2138	11.40020864	57
30	2166	11.60020864	58
30	2194	11.80020864	59
30	2222	12.00020864	60
30	2250	12.20020864	61
30	2278	12.40020864	62
30	2306	12.60020864	63
30	2334	12.80020864	64
30	2362	13.00020864	65
30	2390	13.20020864	66
30	2418	13.40020864	67
30	2446	13.60020864	68
30	2474	13.80020864	69
30	2502	14.00020864	70
30	2530	14.20020864	71
30	2558	14.40020864	72
30	2586	14.60020864	73
30	2614	14.80020864	74
30	2642	15.00020864	75
30	2670	15.20020864	76
30	2698	15.40020864	77
30	2726	15.60020864	78
30	2754	15.80020864	79
30	2782	16.00020864	80
30	2810	16.20020864	81
30	2838	16.40020864	82
30	2866	16.60020864	83
30	2894	16.80020864	84
30	2922	17.00020864	85
30	2950	17.20020864	86
30	2978	17.40020864	87
30	3006	17.60020864	88
30	3034	17.80020864	89
30	3062	18.00020864	90
30	3090	18.20020864	91
30	3118	18.40020864	92
30	3146	18.60020864	93
30	3174	18.80020864	94
30	3202	19.00020864	95
30	3230	19.20020864	96
30	3258	19.40020864	97
30	3286	19.60020864	98
30	3314	19.80020864	99
29	570	0.200555039992	1250
29	598	0.40020864	1250
29	626	0.60020864	1250
29	654	0.80020864	1250
29	682	1.00020864	1250
29	710	1.20020864	1250
29	738	1.40020864	1250
29	766	1.60020864	1250
29	794	1.80020864	1250
29	822	2.00020864	1250
29	850	2.20020864	1250
29	878	2.40020864	1250
29	906	2.60020864	1250
29	934	2.80020864	1250
29	962	3.00020864	1250
29	990	3.20020864	1250
29	1018	3.40020864	1250
29	1046	3.60020864	1250
29	1074	3.80020864	1250
29	1102	4.00020864	1250
29	1130	4.20020864	1250
29	1158	4.40020864	1250
29	1186	4.60020864	1250
29	1214	4.80020864	1250
29	1242	5.00020864	1250
29	1270	5.20020864	1250
29	1298	5.40020864	1250
29	1326	5.60020864	1250
29	1354	5.80020864	1250
29	1382	6.00020864	1250
29	1410	6.20020864	1250
29	1438	6.40020864	1250
29	1466	6.60020864	1250
29	1494	6.80020864	1250
29	1522	7.00020864	1250
29	1550	7.20020864	1250
29	1578	7.40020864	1250
29	1606	7.60020864	1250
29	1634	7.80020864	1250
29	1662	8.00020864	1250
29	1690	8.20020864	1250
29	1718	8.40020864	1250
29	1746	8.60020864	1250
29	1774	8.80020864	1250
29	1802	9.00020864	1250
29	1830	9.20020864	1250
29	1858	9.40020864	1250
29	1886	9.60020864	1250
29	1914	9.80020864	1250
29	1942	10.00020864	1250
29	1970	10.20020864	1250
29	1998	10.40020864	1250
29	2026	10.60020864	1250
29	2054	10.80020864	1250
29	2082	11.00020864	1250
29	2110	11.20020864	1250
29	2138	11.40020864	1250
29	2166	11.60020864	1250
29	2194	11.80020864	1250
29	2222	12.00020864	1250
29	2250	12.20020864	1250
29	2278	12.40020864	1250
29	2306	12.60020864	1250
29	2334	12.80020864	1250
29	2362	13.00020864	1250
29	2390	13.20020864	1250
29	2418	13.40020864	1250
29	2446	13.60020864	1250
29	2474	13.80020864	1250
29	2502	14.00020864	1250
29	2530	14.20020864	1250
29	2558	14.40020864	1250
29	2586	14.60020864	1250
29	2614	14.80020864	1250
29	2642	15.00020864	1250
29	2670	15.20020864	1250
29	2698	15.40020864	1250
29	2726	15.60020864	1250
29	2754	15.80020864	1250
29	2782	16.00020864	1250
29	2810	16.20020864	1250
29	2838	16.40020864	1250
29	2866	16.60020864	1250
29	2894	16.80020864	1250
29	2922	17.00020864	1250
29	2950	17.20020864	1250
29	2978	17.40020864	1250
29	3006	17.60020864	1250
29	3034	17.80020864	1250
29	3062	18.00020864	1250
29	3090	18.20020864	1250
29	3118	18.40020864	1250
29	3146	18.60020864	1250
29	3174	18.80020864	1250
29	3202	19.00020864	1250
29	3230	19.20020864	1250
29	3258	19.40020864	1250
29	3286	19.60020864	1250
29	3314	19.80020864	1250
38	568	0.200555039992	0.000555039992
38	596	0.40020864	0.00020864
38	624	0.60020864	0.00020864
38	652	0.80020864	0.00020864
38	680	1.00020864	0.00020864
38	708	1.20020864	0.00020864
38	736	1.40020864	0.00020864
38	764	1.60020864	0.00020864
38	792	1.80020864	0.00020864
38	820	2.00020864	0.00020864
38	848	2.20020864	0.00020864
38	876	2.40020864	0.00020864
38	904	2.60020864	0.00020864
38	932	2.80020864	0.00020864
38	960	3.00020864	0.00020864
38	988	3.20020864	0.00020864
38	1016	3.40020864	0.00020864
38	1044	3.60020864	0.00020864
38	1072	3.80020864	0.00020864
38	1100	4.00020864	0.00020864
38	1128	4.20020864	0.00020864
38	1156	4.40020864	0.00020864
38	1184	4.60020864	0.00020864
38	1212	4.80020864	0.00020864
38	1240	5.00020864	0.00020864
38	1268	5.20020864	0.00020864
38	1296	5.40020864	0.00020864
38	1324	5.60020864	0.00020864
38	1352	5.80020864	0.00020864
38	1380	6.00020864	0.00020864
38	1408	6.20020864	0.00020864
38	1436	6.40020864	0.00020864
38	1464	6.60020864	0.00020864
38	1492	6.80020864	0.00020864
38	1520	7.00020864	0.00020864
38	1548	7.20020864	0.00020864
38	1576	7.40020864	0.00020864
38	1604	7.60020864	0.00020864
38	1632	7.80020864	0.00020864
38	1660	8.00020864	0.00020864
38	1688	8.20020864	0.00020864
38	1716	8.40020864	0.00020864
38	1744	8.60020864	0.00020864
38	1772	8.80020864	0.00020864
38	1800	9.00020864	0.00020864
38	1828	9.20020864	0.00020864
38	1856	9.40020864	0.00020864
38	1884	9.60020864	0.00020864
38	1912	9.80020864	0.00020864
38	1940	10.00020864	0.00020864
38	1968	10.20020864	0.00020864
38	1996	10.40020864	0.00020864
38	2024	10.60020864	0.00020864
38	2052	10.80020864	0.00020864
38	2080	11.00020864	0.00020864
38	2108	11.20020864	0.00020864
38	2136	11.40020864	0.00020864
38	2164	11.60020864	0.00020864
38	2192	11.80020864	0.00020864
38	2220	12.00020864	0.00020864
38	2248	12.20020864	0.00020864
38	2276	12.40020864	0.00020864
38	2304	12.60020864	0.00020864
38	2332	12.80020864	0.00020864
38	2360	13.00020864	0.00020864
38	2388	13.20020864	0.00020864
38	2416	13.40020864	0.00020864
38	2444	13.60020864	0.00020864
38	2472	13.80020864	0.00020864
38	2500	14.00020864	0.00020864
38	2528	14.20020864	0.00020864
38	2556	14.40020864	0.00020864
38	2584	14.60020864	0.00020864
38	2612	14.80020864	0.00020864
38	2640	15.00020864	0.00020864
38	2668	15.20020864	0.00020864
38	2696	15.40020864	0.00020864
38	2724	15.60020864	0.00020864
38	2752	15.80020864	0.00020864
38	2780	16.00020864	0.00020864
38	2808	16.20020864	0.00020864
38	2836	16.40020864	0.00020864
38	2864	16.60020864	0.00020864
38	2892	16.80020864	0.00020864
38	2920	17.00020864	0.00020864
38	2948	17.20020864	0.00020864
38	2976	17.40020864	0.00020864
38	3004	17.60020864	0.00020864
38	3032	17.80020864	0.00020864
38	3060	18.00020864	0.00020864
38	3088	18.20020864	0.00020864
38	3116	18.40020864	0.00020864
38	3144	18.60020864	0.00020864
38	3172	18.80020864	0.00020864
38	3200	19.00020864	0.00020864
38	3228	19.20020864	0.00020864
38	3256	19.40020864	0.00020864
38	3284	19.60020864	0.00020864
38	3312	19.80020864	0.00020864
35	568	0.200555039992	1
35	596	0.40020864	2
35	624	0.60020864	3
35	652	0.80020864	4
35	680	1.00020864	5
35	708	1.20020864	6
35	736	1.40020864	7
35	764	1.60020864	8
35	792	1.80020864	9
35	820	2.00020864	10
35	848	2.20020864	11
35	876	2.40020864	12
35	904	2.60020864	13
35	932	2.80020864	14
35	960	3.00020864	15
35	988	3.20020864	16
35	1016	3.40020864	17
35	1044	3.60020864	18
35	1072	3.80020864	19
35	1100	4.00020864	20
35	1128	4.20020864	21
35	1156	4.40020864	22
35	1184	4.60020864	23
35	1212	4.80020864	24
35	1240	5.00020864	25
35	1268	5.20020864	26
35	1296	5.40020864	27
35	1324	5.60020864	28
35	1352	5.80020864	29
35	1380	6.00020864	30
35	1408	6.20020864	31
35	1436	6.40020864	32
35	1464	6.60020864	33
35	1492	6.80020864	34
35	1520	7.00020864	35
35	1548	7.20020864	36
35	1576	7.40020864	37
35	1604	7.60020864	38
35	1632	7.80020864	39
35	1660	8.00020864	40
35	1688	8.20020864	41
35	1716	8.40020864	42
35	1744	8.60020864	43
35	1772	8.80020864	44
35	1800	9.00020864	45
35	1828	9.20020864	46
35	1856	9.40020864	47
35	1884	9.60020864	48
35	1912	9.80020864	49
35	1940	10.00020864	50
35	1968	10.20020864	51
35	1996	10.40020864	52
35	2024	10.60020864	53
35	2052	10.80020864	54
35	2080	11.00020864	55
35	2108	11.20020864	56
35	2136	11.40020864	57
35	2164	11.60020864	58
35	2192	11.80020864	59
35	2220	12.00020864	60
35	2248	12.20020864	61
35	2276	12.40020864	62
35	2304	12.60020864	63
35	2332	12.80020864	64
35	2360	13.00020864	65
35	2388	13.20020864	66
35	2416	13.40020864	67
35	2444	13.60020864	68
35	2472	13.80020864	69
35	2500	14.00020864	70
35	2528	14.20020864	71
35	2556	14.40020864	72
35	2584	14.60020864	73
35	2612	14.80020864	74
35	2640	15.00020864	75
35	2668	15.20020864	76
35	2696	15.40020864	77
35	2724	15.60020864	78
35	2752	15.80020864	79
35	2780	16.00020864	80
35	2808	16.20020864	81
35	2836	16.40020864	82
35	2864	16.60020864	83
35	2892	16.80020864	84
35	2920	17.00020864	85
35	2948	17.20020864	86
35	2976	17.40020864	87
35	3004	17.60020864	88
35	3032	17.80020864	89
35	3060	18.00020864	90
35	3088	18.20020864	91
35	3116	18.40020864	92
35	3144	18.60020864	93
35	3172	18.80020864	94
35	3200	19.00020864	95
35	3228	19.20020864	96
35	3256	19.40020864	97
35	3284	19.60020864	98
35	3312	19.80020864	99
39	568	0.200555039992	0.000555039992
39	596	0.40020864	0.00020864
39	624	0.60020864	0.00020864
39	652	0.80020864	0.00020864
39	680	1.00020864	0.00020864
39	708	1.20020864	0.00020864
39	736	1.40020864	0.00020864
39	764	1.60020864	0.00020864
39	792	1.80020864	0.00020864
39	820	2.00020864	0.00020864
39	848	2.20020864	0.00020864
39	876	2.40020864	0.00020864
39	904	2.60020864	0.00020864
39	932	2.80020864	0.00020864
39	960	3.00020864	0.00020864
39	988	3.20020864	0.00020864
39	1016	3.40020864	0.00020864
39	1044	3.60020864	0.00020864
39	1072	3.80020864	0.00020864
39	1100	4.00020864	0.00020864
39	1128	4.20020864	0.00020864
39	1156	4.40020864	0.00020864
39	1184	4.60020864	0.00020864
39	1212	4.80020864	0.00020864
39	1240	5.00020864	0.00020864
39	1268	5.20020864	0.00020864
39	1296	5.40020864	0.00020864
39	1324	5.60020864	0.00020864
39	1352	5.80020864	0.00020864
39	1380	6.00020864	0.00020864
39	1408	6.20020864	0.00020864
39	1436	6.40020864	0.00020864
39	1464	6.60020864	0.00020864
39	1492	6.80020864	0.00020864
39	1520	7.00020864	0.00020864
39	1548	7.20020864	0.00020864
39	1576	7.40020864	0.00020864
39	1604	7.60020864	0.00020864
39	1632	7.80020864	0.00020864
39	1660	8.00020864	0.00020864
39	1688	8.20020864	0.00020864
39	1716	8.40020864	0.00020864
39	1744	8.60020864	0.00020864
39	1772	8.80020864	0.00020864
39	1800	9.00020864	0.00020864
39	1828	9.20020864	0.00020864
39	1856	9.40020864	0.00020864
39	1884	9.60020864	0.00020864
39	1912	9.80020864	0.00020864
39	1940	10.00020864	0.00020864
39	1968	10.20020864	0.00020864
39	1996	10.40020864	0.00020864
39	2024	10.60020864	0.00020864
39	2052	10.80020864	0.00020864
39	2080	11.00020864	0.00020864
39	2108	11.20020864	0.00020864
39	2136	11.40020864	0.00020864
39	2164	11.60020864	0.00020864
39	2192	11.80020864	0.00020864
39	2220	12.00020864	0.00020864
39	2248	12.20020864	0.00020864
39	2276	12.40020864	0.00020864
39	2304	12.60020864	0.00020864
39	2332	12.80020864	0.00020864
39	2360	13.00020864	0.00020864
39	2388	13.20020864	0.00020864
39	2416	13.40020864	0.00020864
39	2444	13.60020864	0.00020864
39	2472	13.80020864	0.00020864
39	2500	14.00020864	0.00020864
39	2528	14.20020864	0.00020864
39	2556	14.40020864	0.00020864
39	2584	14.60020864	0.00020864
39	2612	14.80020864	0.00020864
39	2640	15.00020864	0.00020864
39	2668	15.20020864	0.00020864
39	2696	15.40020864	0.00020864
39	2724	15.60020864	0.00020864
39	2752	15.80020864	0.00020864
39	2780	16.00020864	0.00020864
39	2808	16.20020864	0.00020864
39	2836	16.40020864	0.00020864
39	2864	16.60020864	0.00020864
39	2892	16.80020864	0.00020864
39	2920	17.00020864	0.00020864
39	2948	17.20020864	0.00020864
39	2976	17.40020864	0.00020864
39	3004	17.60020864	0.00020864
39	3032	17.80020864	0.00020864
39	3060	18.00020864	0.00020864