version 2
run General-0-20170424-10:06:37-9174
attr configname General
attr datetime 20170424-10:06:37
attr experiment General
attr inifile omnetpp.ini
attr iterationvars ""
attr iterationvars2 $repetition=0
attr measurement ""
attr network Topo
attr processid 9174
attr repetition 0
attr replication #0
attr resultdir results
attr runnumber 0
attr seedset 0

vector 154  Topo.s1.tcp  tcpRcvQueueBytes  ETV
vector 141  Topo.s1.tcp  "advertised window"  ETV
vector 140  Topo.s1.tcp  "receive window"  ETV
vector 143  Topo.s1.tcp  "sent ack"  ETV
vector 83  Topo.s1.networkLayer.arp  sentReq:vector  ETV
attr title  "ARP request sent, vector"
vector 94  Topo.s1.eth[0].encap  encapPk:vector(packetBytes)  ETV
attr interpolationmode  none
attr source  encapPk
attr title  "packets encapsulated, vector(packetBytes)"
vector 90  Topo.s1.eth[0].mac  rxPkFromHL:vector(packetBytes)  ETV
attr interpolationmode  none
attr source  rxPkFromHL
attr title  "packet bytes from higher layer, vector(packetBytes)"
vector 104  Topo.controller.eth[0].mac  rxPkOk:vector(packetBytes)  ETV
attr interpolationmode  none
attr source  rxPkOk
attr title  "packets received OK, vector(packetBytes)"
vector 105  Topo.controller.eth[0].mac  passedUpPk:vector(packetBytes)  ETV
attr interpolationmode  none
attr source  packetSentToUpper
attr title  "packets passed to higher layer, vector(packetBytes)"
vector 85  Topo.s1.eth[0].mac  txPk:vector(packetBytes)  ETV
attr interpolationmode  none
attr source  txPk
attr title  "packets transmitted, vector(packetBytes)"
vector 113  Topo.controller.eth[0].encap  decapPk:vector(packetBytes)  ETV
attr interpolationmode  none
attr source  decapPk
attr title  "packets decapsulated, vector(packetBytes)"
vector 99  Topo.controller.networkLayer.arp  sentReply:vector  ETV
attr title  "ARP replies sent, vector"
vector 112  Topo.controller.eth[0].encap  encapPk:vector(packetBytes)  ETV
attr interpolationmode  none
attr source  encapPk
attr title  "packets encapsulated, vector(packetBytes)"
vector 108  Topo.controller.eth[0].mac  rxPkFromHL:vector(packetBytes)  ETV
attr interpolationmode  none
attr source  rxPkFromHL
attr title  "packet bytes from higher layer, vector(packetBytes)"
vector 86  Topo.s1.eth[0].mac  rxPkOk:vector(packetBytes)  ETV
attr interpolationmode  none
attr source  rxPkOk
attr title  "packets received OK, vector(packetBytes)"
vector 87  Topo.s1.eth[0].mac  passedUpPk:vector(packetBytes)  ETV
attr interpolationmode  none
attr source  packetSentToUpper
attr title  "packets passed to higher layer, vector(packetBytes)"
vector 103  Topo.controller.eth[0].mac  txPk:vector(packetBytes)  ETV
attr interpolationmode  none
attr source  txPk
attr title  "packets transmitted, vector(packetBytes)"
vector 95  Topo.s1.eth[0].encap  decapPk:vector(packetBytes)  ETV
attr interpolationmode  none
attr source  decapPk
attr title  "packets decapsulated, vector(packetBytes)"
vector 120  Topo.controller.tcp  "rcvd seq"  ETV
vector 121  Topo.controller.tcp  "rcvd ack"  ETV
vector 117  Topo.controller.tcp  "advertised window"  ETV
vector 115  Topo.controller.tcp  "send window"  ETV
vector 130  Topo.controller.tcp  tcpRcvQueueBytes  ETV
vector 116  Topo.controller.tcp  "receive window"  ETV
vector 119  Topo.controller.tcp  "sent ack"  ETV
vector 144  Topo.s1.tcp  "rcvd seq"  ETV
vector 145  Topo.s1.tcp  "rcvd ack"  ETV
vector 139  Topo.s1.tcp  "send window"  ETV
vector 122  Topo.controller.tcp  "unacked bytes"  ETV
vector 118  Topo.controller.tcp  "sent seq"  ETV
vector 147  Topo.s1.tcp  "rcvd dupAcks"  ETV
vector 142  Topo.s1.tcp  "sent seq"  ETV
vector 146  Topo.s1.tcp  "unacked bytes"  ETV
vector 134  Topo.controller.tcp  "measured RTT"  ETV
vector 135  Topo.controller.tcp  "smoothed RTT"  ETV
vector 136  Topo.controller.tcp  RTTVAR  ETV
vector 137  Topo.controller.tcp  RTO  ETV
vector 132  Topo.controller.tcp  cwnd  ETV
vector 123  Topo.controller.tcp  "rcvd dupAcks"  ETV
vector 158  Topo.s1.tcp  "measured RTT"  ETV
vector 159  Topo.s1.tcp  "smoothed RTT"  ETV
vector 160  Topo.s1.tcp  RTTVAR  ETV
vector 161  Topo.s1.tcp  RTO  ETV
vector 156  Topo.s1.tcp  cwnd  ETV
vector 1  Topo.client.udpApp[0]  sentPk:vector(packetBytes)  ETV
attr interpolationmode  none
attr source  sentPk
attr title  "packets sent, vector(packetBytes)"
vector 3  Topo.client.udp  sentPk:vector(packetBytes)  ETV
attr interpolationmode  none
attr source  sentPk
attr title  "packets sent, vector(packetBytes)"
vector 4  Topo.client.udp  sentPk:vector(count)  ETV
attr interpolationmode  none
attr source  sentPk
attr title  "packets sent, vector(count)"
vector 12  Topo.client.networkLayer.arp  sentReq:vector  ETV
attr title  "ARP request sent, vector"
vector 26  Topo.client.eth[0].encap  encapPk:vector(packetBytes)  ETV
attr interpolationmode  none
attr source  encapPk
attr title  "packets encapsulated, vector(packetBytes)"
vector 22  Topo.client.eth[0].mac  rxPkFromHL:vector(packetBytes)  ETV
attr interpolationmode  none
attr source  rxPkFromHL
attr title  "packet bytes from higher layer, vector(packetBytes)"
vector 17  Topo.client.eth[0].mac  txPk:vector(packetBytes)  ETV
attr interpolationmode  none
attr source  txPk
attr title  "packets transmitted, vector(packetBytes)"
vector 59  Topo.s1.etherMAC[0]  rxPkOk:vector(packetBytes)  ETV
attr interpolationmode  none
attr source  rxPkOk
attr title  "packets received OK, vector(packetBytes)"
vector 60  Topo.s1.etherMAC[0]  passedUpPk:vector(packetBytes)  ETV
attr interpolationmode  none
attr source  packetSentToUpper
attr title  "packets passed to higher layer, vector(packetBytes)"
vector 81  Topo.s1.ofa_switch  myRtt:vector  ETV
attr interpolation  none
attr source  myRtt
attr title  "RTT for packet out direction, vector"
vector 74  Topo.s1.etherMAC[1]  rxPkFromHL:vector(packetBytes)  ETV
attr interpolationmode  none
attr source  rxPkFromHL
attr title  "packet bytes from higher layer, vector(packetBytes)"
vector 47  Topo.server.eth[0].mac  rxPkOk:vector(packetBytes)  ETV
attr interpolationmode  none
attr source  rxPkOk
attr title  "packets received OK, vector(packetBytes)"
vector 48  Topo.server.eth[0].mac  passedUpPk:vector(packetBytes)  ETV
attr interpolationmode  none
attr source  packetSentToUpper
attr title  "packets passed to higher layer, vector(packetBytes)"
vector 69  Topo.s1.etherMAC[1]  txPk:vector(packetBytes)  ETV
attr interpolationmode  none
attr source  txPk
attr title  "packets transmitted, vector(packetBytes)"
vector 56  Topo.server.eth[0].encap  decapPk:vector(packetBytes)  ETV
attr interpolationmode  none
attr source  decapPk
attr title  "packets decapsulated, vector(packetBytes)"
vector 42  Topo.server.networkLayer.arp  sentReply:vector  ETV
attr title  "ARP replies sent, vector"
vector 55  Topo.server.eth[0].encap  encapPk:vector(packetBytes)  ETV
attr interpolationmode  none
attr source  encapPk
attr title  "packets encapsulated, vector(packetBytes)"
vector 51  Topo.server.eth[0].mac  rxPkFromHL:vector(packetBytes)  ETV
attr interpolationmode  none
attr source  rxPkFromHL
attr title  "packet bytes from higher layer, vector(packetBytes)"
vector 46  Topo.server.eth[0].mac  txPk:vector(packetBytes)  ETV
attr interpolationmode  none
attr source  txPk
attr title  "packets transmitted, vector(packetBytes)"
vector 70  Topo.s1.etherMAC[1]  rxPkOk:vector(packetBytes)  ETV
attr interpolationmode  none
attr source  rxPkOk
attr title  "packets received OK, vector(packetBytes)"
vector 71  Topo.s1.etherMAC[1]  passedUpPk:vector(packetBytes)  ETV
attr interpolationmode  none
attr source  packetSentToUpper
attr title  "packets passed to higher layer, vector(packetBytes)"
vector 63  Topo.s1.etherMAC[0]  rxPkFromHL:vector(packetBytes)  ETV
attr interpolationmode  none
attr source  rxPkFromHL
attr title  "packet bytes from higher layer, vector(packetBytes)"
vector 18  Topo.client.eth[0].mac  rxPkOk:vector(packetBytes)  ETV
attr interpolationmode  none
attr source  rxPkOk
attr title  "packets received OK, vector(packetBytes)"
vector 19  Topo.client.eth[0].mac  passedUpPk:vector(packetBytes)  ETV
attr interpolationmode  none
attr source  packetSentToUpper
attr title  "packets passed to higher layer, vector(packetBytes)"
vector 58  Topo.s1.etherMAC[0]  txPk:vector(packetBytes)  ETV
attr interpolationmode  none
attr source  txPk
attr title  "packets transmitted, vector(packetBytes)"
vector 27  Topo.client.eth[0].encap  decapPk:vector(packetBytes)  ETV
attr interpolationmode  none
attr source  decapPk
attr title  "packets decapsulated, vector(packetBytes)"
vector 34  Topo.server.udp  rcvdPk:vector(packetBytes)  ETV
attr interpolationmode  none
attr source  rcvdPk
attr title  "packets received, vector(packetBytes)"
vector 39  Topo.server.udp  rcvdPkLifetime:vector  ETV
attr interpolationmode  none
attr source  messageAge(rcvdPk)
attr title  "received packet lifetime, vector"
attr unit  s
vector 38  Topo.server.udp  delay:vector  ETV
attr interpolationmode  none
attr source  delay
attr title  "delay, vector"
vector 35  Topo.server.udp  passedUpPk:vector(count)  ETV
attr interpolationmode  none
attr title  "packets passed up, vector(count)"
vector 29  Topo.server.udpApp[0]  rcvdPk:vector(packetBytes)  ETV
attr interpolationmode  none
attr source  rcvdPk
attr title  "packets received, vector(packetBytes)"
vector 30  Topo.server.udpApp[0]  rcvdPk:vector(count)  ETV
attr interpolationmode  none
attr source  rcvdPk
attr title  "packets received, vector(count)"
vector 31  Topo.server.udpApp[0]  rcvdAppPkt:vector  ETV
attr interpolationmode  none
attr source  rcvdAppPkt
attr title  "packets received during sec, vector"
1	153	0.2	1250
1	572	0.4	1250
1	600	0.6	1250
1	628	0.8	1250
1	656	1	1250
1	684	1.2	1250
1	712	1.4	1250
1	740	1.6	1250
1	768	1.8	1250
1	796	2	1250
1	824	2.2	1250
1	852	2.4	1250
1	880	2.6	1250
1	908	2.8	1250
1	936	3	1250
1	964	3.2	1250
1	992	3.4	1250
1	1020	3.6	1250
1	1048	3.8	1250
1	1076	4	1250
1	1104	4.2	1250
1	1132	4.4	1250
1	1160	4.6	1250
1	1188	4.8	1250
1	1216	5	1250
1	1244	5.2	1250
1	1272	5.4	1250
1	1300	5.6	1250
1	1328	5.8	1250
1	1356	6	1250
1	1384	6.2	1250
1	1412	6.4	1250
1	1440	6.6	1250
1	1468	6.8	1250
1	1496	7	1250
1	1524	7.2	1250
1	1552	7.4	1250
1	1580	7.6	1250
1	1608	7.8	1250
1	1636	8	1250
1	1664	8.2	1250
1	1692	8.4	1250
1	1720	8.6	1250
1	1748	8.8	1250
1	1776	9	1250
1	1804	9.2	1250
1	1832	9.4	1250
1	1860	9.6	1250
1	1888	9.8	1250
1	1916	10	1250
1	1944	10.2	1250
1	1972	10.4	1250
1	2000	10.6	1250
1	2028	10.8	1250
1	2056	11	1250
1	2084	11.2	1250
1	2112	11.4	1250
1	2140	11.6	1250
1	2168	11.8	1250
1	2196	12	1250
1	2224	12.2	1250
1	2252	12.4	1250
1	2280	12.6	1250
1	2308	12.8	1250
1	2336	13	1250
1	2364	13.2	1250
1	2392	13.4	1250
1	2420	13.6	1250
1	2448	13.8	1250
1	2476	14	1250
1	2504	14.2	1250
1	2532	14.4	1250
1	2560	14.6	1250
1	2588	14.8	1250
1	2616	15	1250
1	2644	15.2	1250
1	2672	15.4	1250
1	2700	15.6	1250
1	2728	15.8	1250
1	2756	16	1250
1	2784	16.2	1250
1	2812	16.4	1250
1	2840	16.6	1250
1	2868	16.8	1250
1	2896	17	1250
1	2924	17.2	1250
1	2952	17.4	1250
1	2980	17.6	1250
1	3008	17.8	1250
1	3036	18	1250
1	3064	18.2	1250
1	3092	18.4	1250
1	3120	18.6	1250
1	3148	18.8	1250
1	3176	19	1250
1	3204	19.2	1250
1	3232	19.4	1250
1	3260	19.6	1250
1	3288	19.8	1250
1	3316	20	1250
1	3344	20.2	1250
1	3372	20.4	1250
1	3400	20.6	1250
1	3428	20.8	1250
1	3456	21	1250
1	3484	21.2	1250
1	3512	21.4	1250
1	3540	21.6	1250
1	3568	21.8	1250
1	3596	22	1250
1	3624	22.2	1250
1	3652	22.4	1250
1	3680	22.6	1250
1	3708	22.8	1250
1	3736	23	1250
1	3764	23.2	1250
1	3792	23.4	1250
1	3820	23.6	1250
1	3848	23.8	1250
1	3876	24	1250
1	3904	24.2	1250
1	3932	24.4	1250
1	3960	24.6	1250
1	3988	24.8	1250
1	4016	25	1250
1	4044	25.2	1250
1	4072	25.4	1250
1	4100	25.6	1250
1	4128	25.8	1250
1	4156	26	1250
1	4184	26.2	1250
1	4212	26.4	1250
1	4240	26.6	1250
1	4268	26.8	1250
1	4296	27	1250
1	4324	27.2	1250
1	4352	27.4	1250
1	4380	27.6	1250
1	4408	27.8	1250
1	4436	28	1250
1	4464	28.2	1250
1	4492	28.4	1250
1	4520	28.6	1250
1	4548	28.8	1250
1	4576	29	1250
1	4604	29.2	1250
1	4632	29.4	1250
1	4660	29.6	1250
1	4688	29.8	1250
1	4716	30	1250
1	4744	30.2	1250
1	4836	30.4	1250
1	5059	30.6	1250
1	5087	30.8	1250
1	5115	31	1250
1	5143	31.2	1250
1	5171	31.4	1250
1	5199	31.6	1250
1	5227	31.8	1250
1	5255	32	1250
1	5283	32.2	1250
1	5311	32.4	1250
1	5339	32.6	1250
1	5367	32.8	1250
1	5395	33	1250
1	5423	33.2	1250
1	5451	33.4	1250
1	5479	33.6	1250
1	5507	33.8	1250
1	5535	34	1250
1	5563	34.2	1250
1	5591	34.4	1250
1	5619	34.6	1250
1	5647	34.8	1250
1	5675	35	1250
1	5703	35.2	1250
1	5731	35.4	1250
1	5759	35.6	1250
1	5787	35.8	1250
1	5815	36	1250
1	5843	36.2	1250
1	5871	36.4	1250
1	5899	36.6	1250
1	5927	36.8	1250
1	5955	37	1250
1	5983	37.2	1250
1	6011	37.4	1250
1	6039	37.6	1250
1	6067	37.8	1250
1	6095	38	1250
1	6123	38.2	1250
1	6151	38.4	1250
1	6179	38.6	1250
1	6207	38.8	1250
1	6235	39	1250
1	6263	39.2	1250
1	6291	39.4	1250
1	6319	39.6	1250
1	6347	39.8	1250
1	6375	40	1250
1	6403	40.2	1250
1	6431	40.4	1250
1	6459	40.6	1250
1	6487	40.8	1250
1	6515	41	1250
1	6543	41.2	1250
1	6571	41.4	1250
1	6599	41.6	1250
1	6627	41.8	1250
1	6655	42	1250
1	6683	42.2	1250
1	6711	42.4	1250
1	6739	42.6	1250
1	6767	42.8	1250
1	6795	43	1250
1	6823	43.2	1250
1	6851	43.4	1250
1	6879	43.6	1250
1	6907	43.8	1250
1	6935	44	1250
1	6963	44.2	1250
1	6991	44.4	1250
1	7019	44.6	1250
1	7047	44.8	1250
1	7075	45	1250
1	7103	45.2	1250
1	7131	45.4	1250
1	7159	45.6	1250
1	7187	45.8	1250
1	7215	46	1250
1	7243	46.2	1250
1	7271	46.4	1250
1	7299	46.6	1250
1	7327	46.8	1250
1	7355	47	1250
1	7383	47.2	1250
1	7411	47.4	1250
1	7439	47.6	1250
1	7467	47.8	1250
1	7495	48	1250
1	7523	48.2	1250
1	7551	48.4	1250
1	7579	48.6	1250
1	7607	48.8	1250
1	7635	49	1250
1	7663	49.2	1250
1	7691	49.4	1250
1	7719	49.6	1250
1	7747	49.8	1250
1	7775	50	1250
1	7803	50.2	1250
1	7831	50.4	1250
1	7859	50.6	1250
1	7887	50.8	1250
1	7915	51	1250
1	7943	51.2	1250
1	7971	51.4	1250
1	7999	51.6	1250
1	8027	51.8	1250
1	8055	52	1250
1	8083	52.2	1250
1	8111	52.4	1250
1	8139	52.6	1250
1	8167	52.8	1250
1	8195	53	1250
1	8223	53.2	1250
1	8251	53.4	1250
1	8279	53.6	1250
1	8307	53.8	1250
1	8335	54	1250
1	8363	54.2	1250
1	8391	54.4	1250
1	8419	54.6	1250
1	8447	54.8	1250
1	8475	55	1250
1	8503	55.2	1250
1	8531	55.4	1250
1	8559	55.6	1250
1	8587	55.8	1250
1	8615	56	1250
1	8643	56.2	1250
1	8671	56.4	1250
1	8699	56.6	1250
1	8727	56.8	1250
1	8755	57	1250
1	8783	57.2	1250
1	8811	57.4	1250
1	8839	57.6	1250
1	8867	57.8	1250
1	8895	58	1250
1	8923	58.2	1250
1	8951	58.4	1250
1	8979	58.6	1250
1	9007	58.8	1250
1	9035	59	1250
1	9063	59.2	1250
1	9091	59.4	1250
1	9119	59.6	1250
1	9147	59.8	1250
1	9175	60	1250
1	9203	60.2	1250
1	9231	60.4	1250
1	9291	60.6	1250
1	9514	60.8	1250
1	9542	61	1250
1	9570	61.2	1250
1	9598	61.4	1250
1	9626	61.6	1250
1	9654	61.8	1250
1	9682	62	1250
1	9710	62.2	1250
1	9738	62.4	1250
1	9766	62.6	1250
1	9794	62.8	1250
1	9822	63	1250
1	9850	63.2	1250
1	9878	63.4	1250
1	9906	63.6	1250
1	9934	63.8	1250
1	9962	64	1250
1	9990	64.2	1250
1	10018	64.4	1250
1	10046	64.6	1250
1	10074	64.8	1250
1	10102	65	1250
1	10130	65.2	1250
1	10158	65.4	1250
1	10186	65.6	1250
1	10214	65.8	1250
1	10242	66	1250
1	10270	66.2	1250
1	10298	66.4	1250
1	10326	66.6	1250
1	10354	66.8	1250
1	10382	67	1250
1	10410	67.2	1250
1	10438	67.4	1250
1	10466	67.6	1250
1	10494	67.8	1250
1	10522	68	1250
1	10550	68.2	1250
1	10578	68.4	1250
1	10606	68.6	1250
1	10634	68.8	1250
1	10662	69	1250
1	10690	69.2	1250
1	10718	69.4	1250
1	10746	69.6	1250
1	10774	69.8	1250
1	10802	70	1250
1	10830	70.2	1250
1	10858	70.4	1250
1	10886	70.6	1250
1	10914	70.8	1250
1	10942	71	1250
1	10970	71.2	1250
1	10998	71.4	1250
1	11026	71.6	1250
1	11054	71.8	1250
1	11082	72	1250
1	11110	72.2	1250
1	11138	72.4	1250
1	11166	72.6	1250
1	11194	72.8	1250
1	11222	73	1250
1	11250	73.2	1250
1	11278	73.4	1250
1	11306	73.6	1250
1	11334	73.8	1250
1	11362	74	1250
1	11390	74.2	1250
1	11418	74.4	1250
1	11446	74.6	1250
1	11474	74.8	1250
1	11502	75	1250
1	11530	75.2	1250
1	11558	75.4	1250
1	11586	75.6	1250
1	11614	75.8	1250
1	11642	76	1250
1	11670	76.2	1250
1	11698	76.4	1250
1	11726	76.6	1250
1	11754	76.8	1250
1	11782	77	1250
1	11810	77.2	1250
1	11838	77.4	1250
1	11866	77.6	1250
1	11894	77.8	1250
1	11922	78	1250
1	11950	78.2	1250
1	11978	78.4	1250
1	12006	78.6	1250
1	12034	78.8	1250
1	12062	79	1250
1	12090	79.2	1250
1	12118	79.4	1250
1	12146	79.6	1250
1	12174	79.8	1250
1	12202	80	1250
1	12230	80.2	1250
1	12258	80.4	1250
1	12286	80.6	1250
1	12314	80.8	1250
1	12342	81	1250
1	12370	81.2	1250
1	12398	81.4	1250
1	12426	81.6	1250
1	12454	81.8	1250
1	12482	82	1250
1	12510	82.2	1250
1	12538	82.4	1250
1	12566	82.6	1250
1	12594	82.8	1250
1	12622	83	1250
1	12650	83.2	1250
1	12678	83.4	1250
1	12706	83.6	1250
1	12734	83.8	1250
1	12762	84	1250
1	12790	84.2	1250
1	12818	84.4	1250
1	12846	84.6	1250
1	12874	84.8	1250
1	12902	85	1250
1	12930	85.2	1250
1	12958	85.4	1250
1	12986	85.6	1250
1	13014	85.8	1250
1	13042	86	1250
1	13070	86.2	1250
1	13098	86.4	1250
1	13126	86.6	1250
1	13154	86.8	1250
1	13182	87	1250
1	13210	87.2	1250
1	13238	87.4	1250
1	13266	87.6	1250
1	13294	87.8	1250
1	13322	88	1250
1	13350	88.2	1250
1	13378	88.4	1250
1	13406	88.6	1250
1	13434	88.8	1250
1	13462	89	1250
1	13490	89.2	1250
1	13518	89.4	1250
1	13546	89.6	1250
1	13574	89.8	1250
1	13603	90	1250
1	13692	90.2	1250
1	13720	90.4	1250
1	13748	90.6	1250
1	13808	90.8	1250
1	14032	91	1250
1	14060	91.2	1250
1	14088	91.4	1250
1	14116	91.6	1250
1	14144	91.8	1250
1	14172	92	1250
1	14200	92.2	1250
1	14228	92.4	1250
1	14256	92.6	1250
1	14284	92.8	1250
1	14312	93	1250
1	14340	93.2	1250
1	14368	93.4	1250
1	14396	93.6	1250
1	14424	93.8	1250
1	14452	94	1250
1	14480	94.2	1250
1	14508	94.4	1250
1	14536	94.6	1250
1	14564	94.8	1250
1	14592	95	1250
1	14620	95.2	1250
1	14648	95.4	1250
1	14676	95.6	1250
1	14704	95.8	1250
1	14732	96	1250
1	14760	96.2	1250
1	14788	96.4	1250
1	14816	96.6	1250
1	14844	96.8	1250
1	14872	97	1250
1	14900	97.2	1250
1	14928	97.4	1250
1	14956	97.6	1250
1	14984	97.8	1250
1	15012	98	1250
1	15040	98.2	1250
1	15068	98.4	1250
1	15096	98.6	1250
1	15124	98.8	1250
1	15152	99	1250
1	15180	99.2	1250
1	15208	99.4	1250
1	15236	99.6	1250
1	15264	99.8	1250
1	15292	100	1250
1	15320	100.2	1250
1	15348	100.4	1250
1	15376	100.6	1250
1	15404	100.8	1250
1	15432	101	1250
1	15460	101.2	1250
1	15488	101.4	1250
1	15516	101.6	1250
1	15544	101.8	1250
1	15572	102	1250
1	15600	102.2	1250
1	15628	102.4	1250
1	15656	102.6	1250
1	15684	102.8	1250
1	15712	103	1250
1	15740	103.2	1250
1	15768	103.4	1250
1	15796	103.6	1250
1	15824	103.8	1250
1	15852	104	1250
1	15880	104.2	1250
1	15908	104.4	1250
1	15936	104.6	1250
1	15964	104.8	1250
1	15992	105	1250
1	16020	105.2	1250
1	16048	105.4	1250
1	16076	105.6	1250
1	16104	105.8	1250
1	16132	106	1250
1	16160	106.2	1250
1	16188	106.4	1250
1	16216	106.6	1250
1	16244	106.8	1250
1	16272	107	1250
1	16300	107.2	1250
1	16328	107.4	1250
1	16356	107.6	1250
1	16384	107.8	1250
1	16412	108	1250
1	16440	108.2	1250
1	16468	108.4	1250
1	16496	108.6	1250
1	16524	108.8	1250
1	16552	109	1250
1	16580	109.2	1250
1	16608	109.4	1250
1	16636	109.6	1250
1	16664	109.8	1250
1	16692	110	1250
1	16720	110.2	1250
1	16748	110.4	1250
1	16776	110.6	1250
1	16804	110.8	1250
1	16832	111	1250
1	16860	111.2	1250
1	16888	111.4	1250
1	16916	111.6	1250
1	16944	111.8	1250
1	16972	112	1250
1	17000	112.2	1250
1	17028	112.4	1250
1	17056	112.6	1250
1	17084	112.8	1250
1	17112	113	1250
1	17140	113.2	1250
1	17168	113.4	1250
1	17196	113.6	1250
1	17224	113.8	1250
1	17252	114	1250
1	17280	114.2	1250
1	17308	114.4	1250
1	17336	114.6	1250
1	17364	114.8	1250
1	17392	115	1250
1	17420	115.2	1250
1	17448	115.4	1250
1	17476	115.6	1250
1	17504	115.8	1250
1	17532	116	1250
1	17560	116.2	1250
1	17588	116.4	1250
1	17616	116.6	1250
1	17644	116.8	1250
1	17672	117	1250
1	17700	117.2	1250
1	17728	117.4	1250
1	17756	117.6	1250
1	17784	117.8	1250
1	17812	118	1250
1	17840	118.2	1250
1	17868	118.4	1250
1	17896	118.6	1250
1	17924	118.8	1250
1	17952	119	1250
1	17980	119.2	1250
1	18008	119.4	1250
1	18036	119.6	1250
1	18064	119.8	1250
1	18092	120	1250
1	18120	120.2	1250
1	18148	120.4	1250
1	18392	120.6	1250
1	18420	120.8	1250
1	18480	121	1250
1	18703	121.2	1250
1	18731	121.4	1250
1	18759	121.6	1250
1	18787	121.8	1250
1	18815	122	1250
1	18843	122.2	1250
1	18871	122.4	1250
1	18899	122.6	1250
1	18927	122.8	1250
1	18955	123	1250
1	18983	123.2	1250
1	19011	123.4	1250
1	19039	123.6	1250
1	19067	123.8	1250
1	19095	124	1250
1	19123	124.2	1250
1	19151	124.4	1250
1	19179	124.6	1250
1	19207	124.8	1250
1	19235	125	1250
1	19263	125.2	1250
1	19291	125.4	1250
1	19319	125.6	1250
1	19347	125.8	1250
1	19375	126	1250
1	19403	126.2	1250
1	19431	126.4	1250
1	19459	126.6	1250
1	19487	126.8	1250
1	19515	127	1250
1	19543	127.2	1250
1	19571	127.4	1250
1	19599	127.6	1250
1	19627	127.8	1250
1	19655	128	1250
1	19683	128.2	1250
1	19711	128.4	1250
1	19739	128.6	1250
1	19767	128.8	1250
1	19795	129	1250
1	19823	129.2	1250
1	19851	129.4	1250
1	19879	129.6	1250
1	19907	129.8	1250
1	19935	130	1250
1	19963	130.2	1250
1	19991	130.4	1250
1	20019	130.6	1250
1	20047	130.8	1250
1	20075	131	1250
1	20103	131.2	1250
1	20131	131.4	1250
1	20159	131.6	1250
1	20187	131.8	1250
1	20215	132	1250
1	20243	132.2	1250
1	20271	132.4	1250
1	20299	132.6	1250
1	20327	132.8	1250
1	20355	133	1250
1	20383	133.2	1250
1	20411	133.4	1250
1	20439	133.6	1250
1	20467	133.8	1250
1	20495	134	1250
1	20523	134.2	1250
1	20551	134.4	1250
1	20579	134.6	1250
1	20607	134.8	1250
1	20635	135	1250
1	20663	135.2	1250
1	20691	135.4	1250
1	20719	135.6	1250
1	20747	135.8	1250
1	20775	136	1250
1	20803	136.2	1250
1	20831	136.4	1250
1	20859	136.6	1250
1	20887	136.8	1250
1	20915	137	1250
1	20943	137.2	1250
1	20971	137.4	1250
1	20999	137.6	1250
1	21027	137.8	1250
1	21055	138	1250
1	21083	138.2	1250
1	21111	138.4	1250
1	21139	138.6	1250
1	21167	138.8	1250
1	21195	139	1250
1	21223	139.2	1250
1	21251	139.4	1250
1	21279	139.6	1250
1	21307	139.8	1250
1	21335	140	1250
1	21363	140.2	1250
1	21391	140.4	1250
1	21419	140.6	1250
1	21447	140.8	1250
1	21475	141	1250
1	21503	141.2	1250
1	21531	141.4	1250
1	21559	141.6	1250
1	21587	141.8	1250
1	21615	142	1250
1	21643	142.2	1250
1	21671	142.4	1250
1	21699	142.6	1250
1	21727	142.8	1250
1	21755	143	1250
1	21783	143.2	1250
1	21811	143.4	1250
1	21839	143.6	1250
1	21867	143.8	1250
1	21895	144	1250
1	21923	144.2	1250
1	21951	144.4	1250
1	21979	144.6	1250
1	22007	144.8	1250
1	22035	145	1250
1	22063	145.2	1250
1	22091	145.4	1250
1	22119	145.6	1250
1	22147	145.8	1250
1	22175	146	1250
1	22203	146.2	1250
1	22231	146.4	1250
1	22259	146.6	1250
1	22287	146.8	1250
1	22315	147	1250
1	22343	147.2	1250
1	22371	147.4	1250
1	22399	147.6	1250
1	22427	147.8	1250
1	22455	148	1250
1	22483	148.2	1250
1	22511	148.4	1250
1	22539	148.6	1250
1	22567	148.8	1250
1	22595	149	1250
1	22623	149.2	1250
1	22651	149.4	1250
1	22679	149.6	1250
1	22707	149.8	1250
1	22735	150	1250
1	22763	150.2	1250
1	22791	150.4	1250
1	22851	150.6	1250
1	22879	150.8	1250
1	22907	151	1250
1	22967	151.2	1250
1	23190	151.4	1250
1	23218	151.6	1250
1	23246	151.8	1250
1	23274	152	1250
1	23302	152.2	1250
1	23330	152.4	1250
1	23358	152.6	1250
1	23386	152.8	1250
1	23414	153	1250
1	23442	153.2	1250
1	23470	153.4	1250
1	23498	153.6	1250
1	23526	153.8	1250
1	23554	154	1250
1	23582	154.2	1250
1	23610	154.4	1250
1	23638	154.6	1250
1	23666	154.8	1250
1	23694	155	1250
1	23722	155.2	1250
1	23750	155.4	1250
1	23778	155.6	1250
1	23806	155.8	1250
1	23834	156	1250
1	23862	156.2	1250
1	23890	156.4	1250
1	23918	156.6	1250
1	23946	156.8	1250
1	23974	157	1250
1	24002	157.2	1250
1	24030	157.4	1250
1	24058	157.6	1250
1	24086	157.8	1250
1	24114	158	1250
1	24142	158.2	1250
1	24170	158.4	1250
1	24198	158.6	1250
1	24226	158.8	1250
1	24254	159	1250
1	24282	159.2	1250
1	24310	159.4	1250
1	24338	159.6	1250
1	24366	159.8	1250
1	24394	160	1250
1	24422	160.2	1250
1	24450	160.4	1250
1	24478	160.6	1250
1	24506	160.8	1250
1	24534	161	1250
1	24562	161.2	1250
1	24590	161.4	1250
1	24618	161.6	1250
1	24646	161.8	1250
1	24674	162	1250
1	24702	162.2	1250
1	24730	162.4	1250
1	24758	162.6	1250
1	24786	162.8	1250
1	24814	163	1250
1	24842	163.2	1250
1	24870	163.4	1250
1	24898	163.6	1250
1	24926	163.8	1250
1	24954	164	1250
1	24982	164.2	1250
1	25010	164.4	1250
1	25038	164.6	1250
1	25066	164.8	1250
1	25094	165	1250
1	25122	165.2	1250
1	25150	165.4	1250
1	25178	165.6	1250
1	25206	165.8	1250
1	25234	166	1250
1	25262	166.2	1250
1	25290	166.4	1250
1	25318	166.6	1250
1	25346	166.8	1250
1	25374	167	1250
1	25402	167.2	1250
1	25430	167.4	1250
1	25458	167.6	1250
1	25486	167.8	1250
1	25514	168	1250
1	25542	168.2	1250
1	25570	168.4	1250
1	25598	168.6	1250
1	25626	168.8	1250
1	25654	169	1250
1	25682	169.2	1250
1	25710	169.4	1250
1	25738	169.6	1250
1	25766	169.8	1250
1	25794	170	1250
1	25822	170.2	1250
1	25850	170.4	1250
1	25878	170.6	1250
1	25906	170.8	1250
1	25934	171	1250
1	25962	171.2	1250
1	25990	171.4	1250
1	26018	171.6	1250
1	26046	171.8	1250
1	26074	172	1250
1	26102	172.2	1250
1	26130	172.4	1250
1	26158	172.6	1250
1	26186	172.8	1250
1	26214	173	1250
1	26242	173.2	1250
1	26270	173.4	1250
1	26298	173.6	1250
1	26326	173.8	1250
1	26354	174	1250
1	26382	174.2	1250
1	26410	174.4	1250
1	26438	174.6	1250
1	26466	174.8	1250
1	26494	175	1250
1	26522	175.2	1250
1	26550	175.4	1250
1	26578	175.6	1250
1	26606	175.8	1250
1	26634	176	1250
1	26662	176.2	1250
1	26690	176.4	1250
1	26718	176.6	1250
1	26746	176.8	1250
1	26774	177	1250
1	26802	177.2	1250
1	26830	177.4	1250
1	26858	177.6	1250
1	26886	177.8	1250
1	26914	178	1250
1	26942	178.2	1250
1	26970	178.4	1250
1	26998	178.6	1250
1	27026	178.8	1250
1	27054	179	1250
1	27082	179.2	1250
1	27110	179.4	1250
1	27138	179.6	1250
1	27166	179.8	1250
1	27194	180	1250
1	27222	180.2	1250
1	27250	180.4	1250
1	27278	180.6	1250
1	27306	180.8	1250
1	27334	181	1250
1	27362	181.2	1250
1	27422	181.4	1250
1	27645	181.6	1250
1	27673	181.8	1250
1	27701	182	1250
1	27729	182.2	1250
1	27757	182.4	1250
1	27785	182.6	1250
1	27813	182.8	1250
1	27841	183	1250
1	27869	183.2	1250
1	27897	183.4	1250
1	27925	183.6	1250
1	27953	183.8	1250
1	27981	184	1250
1	28009	184.2	1250
1	28037	184.4	1250
1	28065	184.6	1250
1	28093	184.8	1250
1	28121	185	1250
1	28149	185.2	1250
1	28177	185.4	1250
1	28205	185.6	1250
1	28233	185.8	1250
1	28261	186	1250
1	28289	186.2	1250
1	28317	186.4	1250
1	28345	186.6	1250
1	28373	186.8	1250
1	28401	187	1250
1	28429	187.2	1250
1	28457	187.4	1250
1	28485	187.6	1250
1	28513	187.8	1250
1	28541	188	1250
1	28569	188.2	1250
1	28597	188.4	1250
1	28625	188.6	1250
1	28653	188.8	1250
1	28681	189	1250
1	28709	189.2	1250
1	28737	189.4	1250
1	28765	189.6	1250
1	28793	189.8	1250
1	28821	190	1250
1	28849	190.2	1250
1	28877	190.4	1250
1	28905	190.6	1250
1	28933	190.8	1250
1	28961	191	1250
1	28989	191.2	1250
1	29017	191.4	1250
1	29045	191.6	1250
1	29073	191.8	1250
1	29101	192	1250
1	29129	192.2	1250
1	29157	192.4	1250
1	29185	192.6	1250
1	29213	192.8	1250
1	29241	193	1250
1	29269	193.2	1250
1	29297	193.4	1250
1	29325	193.6	1250
1	29353	193.8	1250
1	29381	194	1250
1	29409	194.2	1250
1	29437	194.4	1250
1	29465	194.6	1250
1	29493	194.8	1250
1	29521	195	1250
1	29549	195.2	1250
1	29577	195.4	1250
1	29605	195.6	1250
1	29633	195.8	1250
1	29661	196	1250
1	29689	196.2	1250
1	29717	196.4	1250
1	29745	196.6	1250
1	29773	196.8	1250
1	29801	197	1250
1	29829	197.2	1250
1	29857	197.4	1250
1	29885	197.6	1250
1	29913	197.8	1250
1	29941	198	1250
1	29969	198.2	1250
1	29997	198.4	1250
1	30025	198.6	1250
1	30053	198.8	1250
1	30081	199	1250
1	30109	199.2	1250
1	30137	199.4	1250
1	30165	199.6	1250
1	30193	199.8	1250
1	30221	200	1250
1	30249	200.2	1250
1	30277	200.4	1250
1	30305	200.6	1250
1	30333	200.8	1250
1	30361	201	1250
1	30389	201.2	1250
1	30417	201.4	1250
1	30445	201.6	1250
1	30473	201.8	1250
1	30501	202	1250
1	30529	202.2	1250
1	30557	202.4	1250
1	30585	202.6	1250
1	30613	202.8	1250
1	30641	203	1250
1	30669	203.2	1250
1	30697	203.4	1250
1	30725	203.6	1250
1	30753	203.8	1250
1	30781	204	1250
1	30809	204.2	1250
1	30837	204.4	1250
1	30865	204.6	1250
1	30893	204.8	1250
1	30921	205	1250
1	30949	205.2	1250
1	30977	205.4	1250
1	31005	205.6	1250
1	31033	205.8	1250
1	31061	206	1250
1	31089	206.2	1250
1	31117	206.4	1250
1	31145	206.6	1250
1	31173	206.8	1250
1	31201	207	1250
1	31229	207.2	1250
1	31257	207.4	1250
1	31285	207.6	1250
1	31313	207.8	1250
1	31341	208	1250
1	31369	208.2	1250
1	31397	208.4	1250
1	31425	208.6	1250
1	31453	208.8	1250
1	31481	209	1250
1	31509	209.2	1250
1	31537	209.4	1250
1	31565	209.6	1250
1	31593	209.8	1250
1	31621	210	1250
1	31649	210.2	1250
1	31677	210.4	1250
1	31705	210.6	1250
1	31733	210.8	1250
1	31761	211	1250
1	31789	211.2	1250
1	31817	211.4	1250
1	31877	211.6	1250
1	32100	211.8	1250
1	32128	212	1250
1	32156	212.2	1250
1	32184	212.4	1250
1	32212	212.6	1250
1	32240	212.8	1250
1	32268	213	1250
1	32296	213.2	1250
1	32324	213.4	1250
1	32352	213.6	1250
1	32380	213.8	1250
1	32408	214	1250
1	32436	214.2	1250
1	32464	214.4	1250
1	32492	214.6	1250
1	32520	214.8	1250
1	32548	215	1250
1	32576	215.2	1250
1	32604	215.4	1250
1	32632	215.6	1250
1	32660	215.8	1250
1	32688	216	1250
1	32716	216.2	1250
1	32744	216.4	1250
1	32772	216.6	1250
1	32800	216.8	1250
1	32828	217	1250
1	32856	217.2	1250
1	32884	217.4	1250
1	32912	217.6	1250
1	32940	217.8	1250
1	32968	218	1250
1	32996	218.2	1250
1	33024	218.4	1250
1	33052	218.6	1250
1	33080	218.8	1250
1	33108	219	1250
1	33136	219.2	1250
1	33164	219.4	1250
1	33192	219.6	1250
1	33220	219.8	1250
1	33248	220	1250
1	33276	220.2	1250
1	33304	220.4	1250
1	33332	220.6	1250
1	33360	220.8	1250
1	33388	221	1250
1	33416	221.2	1250
1	33444	221.4	1250
1	33472	221.6	1250
1	33500	221.8	1250
1	33528	222	1250
1	33556	222.2	1250
1	33584	222.4	1250
1	33612	222.6	1250
1	33640	222.8	1250
1	33668	223	1250
1	33696	223.2	1250
1	33724	223.4	1250
1	33752	223.6	1250
1	33780	223.8	1250
1	33808	224	1250
1	33836	224.2	1250
1	33864	224.4	1250
1	33892	224.6	1250
1	33920	224.8	1250
1	33948	225	1250
1	33976	225.2	1250
1	34004	225.4	1250
1	34032	225.6	1250
1	34060	225.8	1250
1	34088	226	1250
1	34116	226.2	1250
1	34144	226.4	1250
1	34172	226.6	1250
1	34200	226.8	1250
1	34228	227	1250
1	34256	227.2	1250
1	34284	227.4	1250
1	34312	227.6	1250
1	34340	227.8	1250
1	34368	228	1250
1	34396	228.2	1250
1	34424	228.4	1250
1	34452	228.6	1250
1	34480	228.8	1250
1	34508	229	1250