file 9762109 1493206491                                         
version 2
run Simple_attack-0-20170426-13:34:40-10388
attr configname Simple_attack
attr datetime 20170426-13:34:40
attr experiment Simple_attack
attr inifile omnetpp.ini
attr iterationvars ""
attr iterationvars2 $repetition=0
attr measurement ""
attr network Topo
attr processid 10388
attr repetition 0
attr replication #0
attr resultdir results
attr runnumber 0
attr seedset 0

vector 154  Topo.s1.tcp  tcpRcvQueueBytes  ETV
vector 141  Topo.s1.tcp  "advertised window"  ETV
vector 140  Topo.s1.tcp  "receive window"  ETV
vector 143  Topo.s1.tcp  "sent ack"  ETV
vector 83  Topo.s1.networkLayer.arp  sentReq:vector  ETV
attr title  "ARP request sent, vector"
vector 94  Topo.s1.eth[0].encap  encapPk:vector(packetBytes)  ETV
attr interpolationmode  none
attr source  encapPk
attr title  "packets encapsulated, vector(packetBytes)"
vector 90  Topo.s1.eth[0].mac  rxPkFromHL:vector(packetBytes)  ETV
attr interpolationmode  none
attr source  rxPkFromHL
attr title  "packet bytes from higher layer, vector(packetBytes)"
vector 104  Topo.controller.eth[0].mac  rxPkOk:vector(packetBytes)  ETV
attr interpolationmode  none
attr source  rxPkOk
attr title  "packets received OK, vector(packetBytes)"
vector 105  Topo.controller.eth[0].mac  passedUpPk:vector(packetBytes)  ETV
attr interpolationmode  none
attr source  packetSentToUpper
attr title  "packets passed to higher layer, vector(packetBytes)"
vector 85  Topo.s1.eth[0].mac  txPk:vector(packetBytes)  ETV
attr interpolationmode  none
attr source  txPk
attr title  "packets transmitted, vector(packetBytes)"
vector 113  Topo.controller.eth[0].encap  decapPk:vector(packetBytes)  ETV
attr interpolationmode  none
attr source  decapPk
attr title  "packets decapsulated, vector(packetBytes)"
vector 99  Topo.controller.networkLayer.arp  sentReply:vector  ETV
attr title  "ARP replies sent, vector"
vector 112  Topo.controller.eth[0].encap  encapPk:vector(packetBytes)  ETV
attr interpolationmode  none
attr source  encapPk
attr title  "packets encapsulated, vector(packetBytes)"
vector 108  Topo.controller.eth[0].mac  rxPkFromHL:vector(packetBytes)  ETV
attr interpolationmode  none
attr source  rxPkFromHL
attr title  "packet bytes from higher layer, vector(packetBytes)"
vector 86  Topo.s1.eth[0].mac  rxPkOk:vector(packetBytes)  ETV
attr interpolationmode  none
attr source  rxPkOk
attr title  "packets received OK, vector(packetBytes)"
vector 87  Topo.s1.eth[0].mac  passedUpPk:vector(packetBytes)  ETV
attr interpolationmode  none
attr source  packetSentToUpper
attr title  "packets passed to higher layer, vector(packetBytes)"
vector 103  Topo.controller.eth[0].mac  txPk:vector(packetBytes)  ETV
attr interpolationmode  none
attr source  txPk
attr title  "packets transmitted, vector(packetBytes)"
vector 95  Topo.s1.eth[0].encap  decapPk:vector(packetBytes)  ETV
attr interpolationmode  none
attr source  decapPk
attr title  "packets decapsulated, vector(packetBytes)"
vector 120  Topo.controller.tcp  "rcvd seq"  ETV
vector 121  Topo.controller.tcp  "rcvd ack"  ETV
vector 117  Topo.controller.tcp  "advertised window"  ETV
vector 115  Topo.controller.tcp  "send window"  ETV
vector 130  Topo.controller.tcp  tcpRcvQueueBytes  ETV
vector 116  Topo.controller.tcp  "receive window"  ETV
vector 119  Topo.controller.tcp  "sent ack"  ETV
vector 144  Topo.s1.tcp  "rcvd seq"  ETV
vector 145  Topo.s1.tcp  "rcvd ack"  ETV
vector 139  Topo.s1.tcp  "send window"  ETV
vector 122  Topo.controller.tcp  "unacked bytes"  ETV
vector 118  Topo.controller.tcp  "sent seq"  ETV
vector 147  Topo.s1.tcp  "rcvd dupAcks"  ETV
vector 142  Topo.s1.tcp  "sent seq"  ETV
vector 146  Topo.s1.tcp  "unacked bytes"  ETV
vector 134  Topo.controller.tcp  "measured RTT"  ETV
vector 135  Topo.controller.tcp  "smoothed RTT"  ETV
vector 136  Topo.controller.tcp  RTTVAR  ETV
vector 137  Topo.controller.tcp  RTO  ETV
vector 132  Topo.controller.tcp  cwnd  ETV
vector 123  Topo.controller.tcp  "rcvd dupAcks"  ETV
vector 158  Topo.s1.tcp  "measured RTT"  ETV
vector 159  Topo.s1.tcp  "smoothed RTT"  ETV
vector 160  Topo.s1.tcp  RTTVAR  ETV
vector 161  Topo.s1.tcp  RTO  ETV
vector 156  Topo.s1.tcp  cwnd  ETV
vector 1  Topo.client.udpApp[0]  sentPk:vector(packetBytes)  ETV
attr interpolationmode  none
attr source  sentPk
attr title  "packets sent, vector(packetBytes)"
vector 3  Topo.client.udp  sentPk:vector(packetBytes)  ETV
attr interpolationmode  none
attr source  sentPk
attr title  "packets sent, vector(packetBytes)"
vector 4  Topo.client.udp  sentPk:vector(count)  ETV
attr interpolationmode  none
attr source  sentPk
attr title  "packets sent, vector(count)"
vector 12  Topo.client.networkLayer.arp  sentReq:vector  ETV
attr title  "ARP request sent, vector"
vector 26  Topo.client.eth[0].encap  encapPk:vector(packetBytes)  ETV
attr interpolationmode  none
attr source  encapPk
attr title  "packets encapsulated, vector(packetBytes)"
vector 22  Topo.client.eth[0].mac  rxPkFromHL:vector(packetBytes)  ETV
attr interpolationmode  none
attr source  rxPkFromHL
attr title  "packet bytes from higher layer, vector(packetBytes)"
vector 17  Topo.client.eth[0].mac  txPk:vector(packetBytes)  ETV
attr interpolationmode  none
attr source  txPk
attr title  "packets transmitted, vector(packetBytes)"
vector 59  Topo.s1.etherMAC[0]  rxPkOk:vector(packetBytes)  ETV
attr interpolationmode  none
attr source  rxPkOk
attr title  "packets received OK, vector(packetBytes)"
vector 60  Topo.s1.etherMAC[0]  passedUpPk:vector(packetBytes)  ETV
attr interpolationmode  none
attr source  packetSentToUpper
attr title  "packets passed to higher layer, vector(packetBytes)"
vector 81  Topo.s1.ofa_switch  myRtt:vector  ETV
attr interpolation  none
attr source  myRtt
attr title  "RTT for packet out direction, vector"
vector 74  Topo.s1.etherMAC[1]  rxPkFromHL:vector(packetBytes)  ETV
attr interpolationmode  none
attr source  rxPkFromHL
attr title  "packet bytes from higher layer, vector(packetBytes)"
vector 47  Topo.server.eth[0].mac  rxPkOk:vector(packetBytes)  ETV
attr interpolationmode  none
attr source  rxPkOk
attr title  "packets received OK, vector(packetBytes)"
vector 48  Topo.server.eth[0].mac  passedUpPk:vector(packetBytes)  ETV
attr interpolationmode  none
attr source  packetSentToUpper
attr title  "packets passed to higher layer, vector(packetBytes)"
vector 69  Topo.s1.etherMAC[1]  txPk:vector(packetBytes)  ETV
attr interpolationmode  none
attr source  txPk
attr title  "packets transmitted, vector(packetBytes)"
vector 56  Topo.server.eth[0].encap  decapPk:vector(packetBytes)  ETV
attr interpolationmode  none
attr source  decapPk
attr title  "packets decapsulated, vector(packetBytes)"
vector 42  Topo.server.networkLayer.arp  sentReply:vector  ETV
attr title  "ARP replies sent, vector"
vector 55  Topo.server.eth[0].encap  encapPk:vector(packetBytes)  ETV
attr interpolationmode  none
attr source  encapPk
attr title  "packets encapsulated, vector(packetBytes)"
vector 51  Topo.server.eth[0].mac  rxPkFromHL:vector(packetBytes)  ETV
attr interpolationmode  none
attr source  rxPkFromHL
attr title  "packet bytes from higher layer, vector(packetBytes)"
vector 46  Topo.server.eth[0].mac  txPk:vector(packetBytes)  ETV
attr interpolationmode  none
attr source  txPk
attr title  "packets transmitted, vector(packetBytes)"
vector 70  Topo.s1.etherMAC[1]  rxPkOk:vector(packetBytes)  ETV
attr interpolationmode  none
attr source  rxPkOk
attr title  "packets received OK, vector(packetBytes)"
vector 71  Topo.s1.etherMAC[1]  passedUpPk:vector(packetBytes)  ETV
attr interpolationmode  none
attr source  packetSentToUpper
attr title  "packets passed to higher layer, vector(packetBytes)"
vector 63  Topo.s1.etherMAC[0]  rxPkFromHL:vector(packetBytes)  ETV
attr interpolationmode  none
attr source  rxPkFromHL
attr title  "packet bytes from higher layer, vector(packetBytes)"
vector 18  Topo.client.eth[0].mac  rxPkOk:vector(packetBytes)  ETV
attr interpolationmode  none
attr source  rxPkOk
attr title  "packets received OK, vector(packetBytes)"
vector 19  Topo.client.eth[0].mac  passedUpPk:vector(packetBytes)  ETV
attr interpolationmode  none
attr source  packetSentToUpper
attr title  "packets passed to higher layer, vector(packetBytes)"
vector 58  Topo.s1.etherMAC[0]  txPk:vector(packetBytes)  ETV
attr interpolationmode  none
attr source  txPk
attr title  "packets transmitted, vector(packetBytes)"
vector 27  Topo.client.eth[0].encap  decapPk:vector(packetBytes)  ETV
attr interpolationmode  none
attr source  decapPk
attr title  "packets decapsulated, vector(packetBytes)"
vector 34  Topo.server.udp  rcvdPk:vector(packetBytes)  ETV
attr interpolationmode  none
attr source  rcvdPk
attr title  "packets received, vector(packetBytes)"
vector 39  Topo.server.udp  rcvdPkLifetime:vector  ETV
attr interpolationmode  none
attr source  messageAge(rcvdPk)
attr title  "received packet lifetime, vector"
attr unit  s
vector 38  Topo.server.udp  delay:vector  ETV
attr interpolationmode  none
attr source  delay
attr title  "delay, vector"
vector 35  Topo.server.udp  passedUpPk:vector(count)  ETV
attr interpolationmode  none
attr title  "packets passed up, vector(count)"
vector 29  Topo.server.udpApp[0]  rcvdPk:vector(packetBytes)  ETV
attr interpolationmode  none
attr source  rcvdPk
attr title  "packets received, vector(packetBytes)"
vector 30  Topo.server.udpApp[0]  rcvdPk:vector(count)  ETV
attr interpolationmode  none
attr source  rcvdPk
attr title  "packets received, vector(count)"
vector 31  Topo.server.udpApp[0]  rcvdAppPkt:vector  ETV
attr interpolationmode  none
attr source  rcvdAppPkt
attr title  "packets received during sec, vector"
1	9603 23900 153 513066 0.2 259 1295 1250 1250 1618750 2023437500
3	33503 453437 157 513255 0.2 259.05999999229 18202 9 1258 1781273 2050789847
4	486940 511254 157 513255 0.2 259.05999999229 18202 1 18202 165665503 2010350878905
12	998194 61 159 457452 0.2 240.219999993273 3 1 1 3 3
17	998255 524750 165 513262 0.20000576 259.06000575229 18205 64 1296 2760560 2244366080
18	1523005 85 339 457632 0.200089919998 240.220089913271 3 64 64 192 12288
19	1523090 85 339 457632 0.200089919998 240.220089913271 3 64 64 192 12288
22	1523175 488631 163 513260 0.2 259.05999999229 18205 64 1296 2760560 2244366080
26	2011806 488631 162 513259 0.2 259.05999999229 18205 28 1278 2145397 2129323919
27	2500437 85 343 457636 0.200089919998 240.220089913271 3 28 28 84 2352
29	2500522 507786 570 513279 0.200555039992 259.06001151229 18202 1 1250 1635657 2023454407
30	3008308 565603 570 513279 0.200555039992 259.06001151229 18202 1 18202 165665503 2010350878905
31	3573911 7045 682 513092 1.00020864 259.000011512291 259 5 105 18195 1865475
34	3580956 507786 568 513277 0.200555039992 259.06001151229 18202 9 1258 1781273 2050789847
35	4088742 565603 568 513277 0.200555039992 259.06001151229 18202 1 18202 165665503 2010350878905
38	4654345 654321 568 513277 0.200555039992 259.06001151229 18202 1.152e-05 0.000555039992 0.51070710575082 7.0926824709512e-05
39	5308666 654321 568 513277 0.200555039992 259.06001151229 18202 1.152e-05 0.000555039992 0.51070710575082 7.0926824709512e-05
42	5962987 82 237 457530 0.200039199999 240.220039193272 3 1 1 3 3
46	5963069 85 247 457540 0.200044959999 240.220044953272 3 64 64 192 12288
47	5963154 524778 227 513271 0.200039199999 259.06001151229 18205 64 1296 2760560 2244366080
48	6487932 524778 227 513271 0.200039199999 259.06001151229 18205 64 1296 2760560 2244366080
51	7012710 85 243 457536 0.200039199999 240.220039193272 3 64 64 192 12288
55	7012795 85 242 457535 0.200039199999 240.220039193272 3 28 28 84 2352
56	7012880 524778 231 513273 0.200039199999 259.06001151229 18205 28 1278 2145397 2129323919
58	7537658 85 340 457633 0.200089919998 240.220089913271 3 64 64 192 12288
59	7537743 524751 166 513263 0.20000576 259.06000575229 18205 64 1296 2760560 2244366080
60	8062494 524751 166 513263 0.20000576 259.06000575229 18205 64 1296 2760560 2244366080
63	8587245 85 335 457628 0.200084159998 240.220084153271 3 64 64 192 12288
69	8587330 524778 228 513272 0.200039199999 259.06001151229 18205 64 1296 2760560 2244366080
70	9112108 85 248 457541 0.200044959999 240.220044953272 3 64 64 192 12288
71	9112193 85 248 457541 0.200044959999 240.220044953272 3 64 64 192 12288
74	9112278 524778 223 513268 0.200033439999 259.06000575229 18205 64 1296 2760560 2244366080
81	9637056 845 219 462519 0.200033439999 241.800372313177 21 3.9199999e-05 240.22003343327 360.63279887321 72156.156616327
83	9637901 68 27 456775 0 240.030028714995 3 1 1 3 3
85	9637969 3425 33 462528 0.00000576 241.800378073177 120 64 594 19899 7585173
86	9641394 3401 43 462510 0.00001152 241.800372313177 119 64 594 19835 7581077
87	9644795 3401 43 462510 0.00001152 241.800372313177 119 64 594 19835 7581077
90	9648196 3376 31 462525 0 241.800372313177 120 64 594 19899 7585173
94	9651572 3376 30 462524 0 241.800372313177 120 28 576 17238 6865158
95	9654948 3402 45 462512 0.00001152 241.800372313177 119 28 576 17201 6863801
99	9658350 77 37 456785 0.00000576 240.030034474995 3 1 1 3 3
103	9658427 3521 44 462511 0.00001152 241.800372313177 119 64 594 19835 7581077
104	9661948 3545 32 462527 0.00000576 241.800378073177 120 64 594 19899 7585173
105	9665493 3545 32 462527 0.00000576 241.800378073177 120 64 594 19899 7585173
108	9669038 3507 41 462487 0.00000576 241.800304713179 119 64 594 19835 7581077
112	9672545 3507 40 462486 0.00000576 241.800304713179 119 28 576 17201 6863801
113	9676052 3545 34 462529 0.00000576 241.800378073177 120 28 576 17238 6865158
115	9679597 1904 59 462533 0.00001728 241.800378073177 61 7504 7504 457744 3434910976
116	9681501 3617 59 462482 0.00001728 241.800304713179 116 7504 7504 870464 6531961856
117	9685118 3738 59 462482 0.00001728 241.800304713179 117 7505 19975 1629715 24273580721
118	9688856 1839 92 462482 0.0000288 241.800304713179 59 5 12253 359393 2975463929
119	9690695 3624 59 462482 0.00001728 241.800304713179 116 1 12471 751746 6403089872
120	9694319 3657 59 462533 0.00001728 241.800378073177 117 0 12471 739277 6247572215
121	9697976 3650 59 462533 0.00001728 241.800378073177 117 0 12478 704269 5812116997
122	9701626 3121 87 462533 0.0000288 241.800378073177 107 0 1298 27107 24438353
123	9704747 3267 127 462533 0.00004032 241.800378073177 115 0 0 0 0
130	9708014 4854 59 462482 0.00001728 241.800304713179 172 0 0 0 0
132	9712868 1859 127 462533 0.00004032 241.800378073177 59 1072 5360 135072 380379904
134	9714727 1723 127 462533 0.00004032 241.800378073177 44 1.152e-05 7.3359998e-05 0.001331999965 6.000948217232e-08
135	9716450 1769 127 462533 0.00004032 241.800378073177 44 1.44e-06 3.7564992e-05 0.001082130265 2.9958161645724e-08
136	9718219 1819 127 462533 0.00004032 241.800378073177 44 0.002127303751 0.65625144 5.235921111231 1.837588191957
137	9720038 1357 127 462533 0.00004032 241.800378073177 44 1 2.6250072 49.784522886152 61.929714315409
139	9721395 1772 72 462428 0.00002304 241.80023831318 57 7504 7504 427728 3209670912
140	9723167 3608 25 462516 0 241.800372313177 117 7504 7504 877968 6588271872
141	9726775 3725 25 462516 0 241.800372313177 118 7504 19982 1589746 23026443102
142	9730500 1712 112 462369 0.00003456 241.800164953182 56 1 12246 346633 2851764827
143	9732212 3601 25 462516 0 241.800372313177 117 0 12478 704269 5812116997
144	9735813 3623 72 462516 0.00002304 241.800372313177 116 4 12253 691796 5656424594
145	9739436 3638 72 462516 0.00002304 241.800372313177 116 1 12471 751746 6403089872
146	9743074 2841 112 462428 0.00003456 241.80023831318 98 0 1297 22588 19875396
147	9745915 3263 105 462516 0.00003456 241.800372313177 115 0 0 0 0
154	9749178 4939 25 462516 0 241.800372313177 176 0 0 0 0
156	9754117 1749 151 462428 0.000052799999 241.80023831318 56 1072 4824 124888 330677696
158	9755866 1548 151 462428 0.000052799999 241.80023831318 42 1.152e-05 7.3359998e-05 0.001207839988 5.442157949008e-08
159	9757414 1685 151 462428 0.000052799999 241.80023831318 42 2.279999e-06 3.4507122e-05 0.00096629017 2.4575836064382e-08
160	9759099 1722 151 462428 0.000052799999 241.80023831318 42 0.002773565454 0.65625228 5.231407789829 1.8375807407768
161	9760821 1288 151 462428 0.000052799999 241.80023831318 42 1 2.625011399999 47.784538027848 59.929802330328
